
                                 *****************
                                 * O   R   C   A *
                                 *****************

                                            #,                                       
                                            ###                                      
                                            ####                                     
                                            #####                                    
                                            ######                                   
                                           ########,                                 
                                     ,,################,,,,,                         
                               ,,#################################,,                 
                          ,,##########################################,,             
                       ,#########################################, ''#####,          
                    ,#############################################,,   '####,        
                  ,##################################################,,,,####,       
                ,###########''''           ''''###############################       
              ,#####''   ,,,,##########,,,,          '''####'''          '####       
            ,##' ,,,,###########################,,,                        '##       
           ' ,,###''''                  '''############,,,                           
         ,,##''                                '''############,,,,        ,,,,,,###''
      ,#''                                            '''#######################'''  
     '                                                          ''''####''''         
             ,#######,   #######,   ,#######,      ##                                
            ,#'     '#,  ##    ##  ,#'     '#,    #''#        ,####,    ,#,          
            ##       ##  ##   ,#'  ##            #'  '#       #'       ,# #          
            ##       ##  #######   ##           ,######,      #####,      #          
            '#,     ,#'  ##    ##  '#,     ,#' ,#      #,     #,   #      #          
             '#######'   ##     ##  '#######'  #'      '#     '####' #    #          



                #########################################################
                #                        -***-                          #
                #          Department of theory and spectroscopy        #
                #                                                       #
                #                      Frank Neese                      #
                #                                                       #
                #     Directorship, Architecture, Infrastructure        #
                #                    SHARK, DRIVERS                     #
                #        Core code/Algorithms in most modules           #
                #                                                       #
                #        Max Planck Institute fuer Kohlenforschung      #
                #                Kaiser Wilhelm Platz 1                 #
                #                 D-45470 Muelheim/Ruhr                 #
                #                      Germany                          #
                #                                                       #
                #                  All rights reserved                  #
                #                        -***-                          #
                #########################################################


                         Program Version 6.1.0  -  RELEASE   -
                                (GIT: $679e74b$)
                          ($2025-06-10 18:02:51 +0200$)


 With contributions from (in alphabetic order):
[Max-Planck-Institut fuer Kohlenforschung]                               
  Daniel Aravena         : Magnetic Suceptibility                        
  Michael Atanasov       : Ab Initio Ligand Field Theory (pilot matlab implementation)
  Alexander A. Auer      : GIAO ZORA, VPT2 properties, NMR spectrum      
  Ute Becker             : All parallelization in ORCA, NUMFREQ, NUMCALC 
  Giovanni Bistoni       : ED, misc. LED, open-shell LED, HFLD           
  Dmytro Bykov           : pre 5.0 version of the SCF Hessian            
  Marcos Casanova-Páez   : Triplet and SCS-CIS(D). UHF-(DLPNO)-IP/EA/STEOM-CCSD. UHF-CVS-IP/STEOM-CCSD   
  Vijay G. Chilkuri      : MRCI spin determinant printing, contributions to CSF-ICE 
  Pauline Colinet        : FMM embedding                                 
  Dipayan Datta          : RHF DLPNO-CCSD density                        
  Achintya Kumar Dutta   : EOM-CC, STEOM-CC                              
  Nicolas Foglia         : Exact transition moments, OPA infrastructure, MCD improvements    
  Dmitry Ganyushin       : Spin-Orbit,Spin-Spin,Magnetic field MRCI      
  Miquel Garcia-Rates    : C-PCM and meta-GGA Hessian, CCSD/C-PCM, Gaussian charge scheme 
  Tiago L. C. Gouveia    : GS-ROHF, GS-ROCIS                             
  Yang Guo               : DLPNO-NEVPT2, F12-NEVPT2, CIM, IAO-localization        
  Andreas Hansen         : Spin unrestricted coupled pair/coupled cluster methods 
  Ingolf Harden          : AUTO-CI MPn and infrastructure                
  Benjamin Helmich-Paris : MC-RPA, TRAH-(SCF,CASSCF), AVAS, COSX integrals, SCF dyn. polar., MC-PDFT, srDFT 
  Lee Huntington         : MR-EOM, pCC                                   
  Robert Izsak           : Overlap fitted RIJCOSX, COSX-SCS-MP3, EOM     
  Riya Kayal             : Wick's Theorem for AUTO-CI, AUTO-CI UHF-CCSDT 
  Emily Kempfer          : AUTO-CI RHF CISDT and CCSDT, approximate NEVPT4
  Christian Kollmar      : KDIIS, OOCD, Brueckner-CCSD(T), CCSD density, CASPT2, CASPT2-K, improved NEVPT2 
  Axel Koslowski         : Symmetry handling                             
  Simone Kossmann        : meta-GGA functionals, TD-DFT gradient, OOMP2, (MP2 Hessian; deprecated post 5.0) 
  Lucas Lang             : DCDCAS, Hyperfine gauge corrections, ICE-SOC+SSC
  Marvin Lechner         : AUTO-CI (C++ implementation), FIC-MRCC        
  Spencer Leger          : CASSCF response                               
  Dagmar Lenk            : GEPOL surface, SMD, ORCA-2-JSON               
  Dimitrios Liakos       : Extrapolation schemes; Compound Job, Property file
  Dimitrios Manganas     : Further ROCIS development; embedding schemes. LFT, Crystal Embedding 
  Dimitrios Pantazis     : SARC Basis sets                               
  Anastasios Papadopoulos: AUTO-CI, single reference methods and gradients 
  Taras Petrenko         : pre 6.0 DFT Hessian and TD-DFT gradient,  ECA, NRVS 
  Petra Pikulova         : Analytic Raman intensities                    
  Peter Pinski           : DLPNO-MP2, DLPNO-MP2 Gradient                 
  Shashank Vittal Rao    : ES-AILFT, MagRelax                            
  Christoph Reimann      : Effective Core Potentials                     
  Marius Retegan         : Local ZFS, SOC                                
  Christoph Riplinger    : Optimizer, TS searches, QM/MM, DLPNO-CCSD(T), (RO)-DLPNO pert. Triples 
  Michael Roemelt        : Original ROCIS implementation, recursive CI coupling coefficients
  Masaaki Saitow         : Open-shell DLPNO-CCSD energy and density      
  Barbara Sandhoefer     : DKH picture change effects                    
  Yorick L. A. Schmerwitz: GMF and freeze-and-release deltaSCF, NEB S-IDPP initial path                    
  Kantharuban Sivalingam : CASSCF convergence/infrastructure, NEVPT2, NEVPT3, NEVPT4(SD), FIC-MRCI and CEPA variants
  Bernardo de Souza      : ESD, SOC TD-DFT                               
  Georgi L. Stoychev     : AutoAux, RI-MP2 NMR, DLPNO-MP2 response, X2C  
  Van Anh Tran           : RI-MP2 g-tensors                              
  Willem Van den Heuvel  : Paramagnetic NMR                              
  Zikuan Wang            : NOTCH, Electric field optimization            
  Frank Wennmohs         : Technical directorship and infrastructure     
  Hang Xu                : AUTO-CI-Response properties                   
                                                                         
[FACCTs GmbH]                                                            
  Markus Bursch, Nicolas Foglia, Miquel Garcia-Rates, Ingolf Harden, Hagen Neugebauer, Anastasios Papadopoulos, 
  Christoph Riplinger, Bernardo de Souza, Georgi L. Stoychev                                                    
                                                                 
  APM, various basis sets, CI-OPT, improved COSX, DLPNO-Multilevel,           
  DOCKER, DRACO, updates on ESD, Fragmentator, GOAT, IRC, LR-CPCM, L-BFGS, MBIS, meta-GGA TD-DFT gradient, ML-optimized integration grids, 
  MM, NACMEs, nearIR, NEB, NEB-TS, NL-DFT gradient (VV10), 2- and 3-layer-ONIOM, interface openCOSMO-RS, QMMM,   
  Crystal-QMMM, RESP, rigid body optimization, SF, symmetry and pop. for TD-DFT, various functionals, SOLVATOR                                   
                                                                         
[Other institutions]                                                     
  V. Asgeirsson          : NEB                                           
  Christoph Bannwarth    : sTDA-DFT, sTD-DFT, PBEh-3c, B97-3c, D3        
  Giovanni Bistoni       : ETS/NOCV, ADLD/ADEX, COVALED                  
  Martin Brehm           : Molecular dynamics                            
  Ronald Cardenas        : ETS/NOCV                                      
  Martina Colucci        : COVALED                                       
  Sebastian Ehlert       : rSCAN, r2SCAN, r2SCAN-3c, D4, dhf basis sets  
  Marvin Friede          : D4 for Fr, Ra, Ac-Lr                          
  Lars Goerigk           : TD-DFT with DH, B97 family of functionals     
  Stefan Grimme          : VdW corrections, initial TS optimization, DFT functionals, gCP, sTDA/sTD-DF 
  Waldemar Hujo          : DFT-NL                                        
  H. Jonsson             : NEB                                           
  Holger Kruse           : gCP                                           
  Marcel Mueller         : wB97X-3c, vDZP basis set                      
  Hagen Neugebauer       : wr2SCAN, Native XTB                           
  Gianluca Regni         : ADLD/ADEX                                     
  Tobias Risthaus        : pre 6.0 range-separated hybrid DFT and stability analysis
  Lukas Wittmann         : regularized MP2, r2SCAN double-hybrids, wr2SCAN        
                                                                         
We gratefully acknowledge several colleagues who have allowed us to      
interface, adapt or use parts of their codes:                            
  Ed Valeev, F. Pavosevic, A. Kumar             : LibInt (2-el integral package), F12 methods 
  Garnet Chan, S. Sharma, J. Yang, R. Olivares  : DMRG                   
  Ulf Ekstrom                                   : XCFun DFT Library      
  Mihaly Kallay                                 : mrcc  (arbitrary order and MRCC methods)
  Frank Weinhold                                : gennbo (NPA and NBO analysis)           
  Simon Mueller                                 : openCOSMO-RS                            
  Christopher J. Cramer and Donald G. Truhlar   : smd solvation model                     
  S Lehtola, MJT Oliveira, MAL Marques          : LibXC Library                           
  Liviu Ungur et al                             : ANISO software                          


 Your calculation uses the libint2 library for the computation of 2-el integrals
 For citations please refer to: http://libint.valeyev.net

 Your ORCA version has been built with support for libXC version: 7.0.0
 For citations please refer to: https://libxc.gitlab.io

 This ORCA versions uses:
   CBLAS   interface :  Fast vector & matrix operations
   LAPACKE interface :  Fast linear algebra routines
   SCALAPACK package :  Parallel linear algebra routines
   Shared memory     :  Shared parallel matrices
   BLAS/LAPACK       :  OpenBLAS 0.3.29  USE64BITINT DYNAMIC_ARCH NO_AFFINITY Cooperlake SINGLE_THREADED
        Core in use  :  Cooperlake
   Copyright (c) 2011-2014, The OpenBLAS Project


  ***********************************
  * Starting time: Tue Dec  2 23:23:42 2025
  * Host name:     Brock-Desktop
  * Process ID:    216275
  * Working dir.:  /home/brdyer/water/aligned
  ***********************************

Your calculation utilizes the DFT-NL dispersion correction.
Cite in your paper:
Vydrov, O. A.; Van Voorhis, T. J. Chem. Phys. 2010, 133, 244103
Hujo, W.; Grimme, S. J. Chem. Theory Comput. 2011, 7, 3866 
   

Warning: RI is on but no J-basis has been assigned. Assigning Def2/J (nothing to worry about!)
================================================================================

----- Orbital basis set information -----
Your calculation utilizes the basis: def2-QZVPPD
   F. Weigend and R. Ahlrichs, Phys. Chem. Chem. Phys. 7, 3297 (2005).
   D. Rappoport and F. Furche, J. Chem. Phys. 133, 134105 (2010)
   D. Rappoport, J. Chem. Phys. 155, 124102 (2021).

----- AuxJ basis set information -----
Your calculation utilizes the auxiliary basis: def2/J
   H-Rn: F. Weigend, Phys. Chem. Chem. Phys. 8, 1057 (2006).
   Fr-Lr: K. Eichkorn, F. Weigend, O. Treutler, R. Ahlrichs; Theor. Chem. Acc. 97, 119 (1997).

================================================================================
                                        WARNINGS
                       Please study these warnings very carefully!
================================================================================

WARNING: Old DensityContainer found on disk!
         Will remove this file - 
         If you want to keep old densities, please start your calculation with a different basename. 


WARNING: B97M-V or wB97M-V functional requested.
  ===> : libXC variant has now been activated.
         Any manually given DFX/HFX/RangeSep scaling parameters are IGNORED!


WARNING: Geometry Optimization
  ===> : Switching off AutoStart
         For restart on a previous wavefunction, please use MOREAD

WARNING: Analytic gradients for DFT-NL dispersion can only be done using the self-consistent method,
  ===>   Switching to SCNL

WARNING: Self-consistent DFT-NL dispersion not compatible with AutoTRAH.
  ===>   Switching AutoTRAH off


================================================================================
                                       INPUT FILE
================================================================================
NAME = aligned.inp
|  1> # avogadro generated ORCA file
|  2> # H2O | Geometry Optimization | wB97M-V/def2-QZVPPD
|  3> # 
|  4> !Opt wB97M-V def2-QZVPPD PrintMOs PrintBasis VeryTightSCF VeryTightOpt DEFGRID3
|  5> %elprop
|  6>     Dipole True
|  7>     Quadrupole True
|  8> end
|  9> %pal
| 10>     nprocs 16
| 11> end
| 12> %geom
| 13>     Constraints
| 14>         { C 0 C }
| 15>         { Z 1 C }
| 16>         { X 1 C }
| 17>         { Z 2 C }
| 18>         { X 2 C }
| 19>     end
| 20> end
| 21> * xyz 0 1
| 22>    O      0.000000   -0.000000    0.000000
| 23>    H     -0.584028   -0.760175    0.000000
| 24>    H     -0.584028    0.760175    0.000000
| 25> *
| 26> 
| 27> 
| 28> 
| 29> 
| 30>                          ****END OF INPUT****
================================================================================

                       *****************************
                       * Geometry Optimization Run *
                       *****************************

Geometry optimization settings:
Update method            Update   .... BFGS
Choice of coordinates    CoordSys .... (2022) Redundant Internals
Initial Hessian          InHess   .... Almloef's Model
Max. no of cycles        MaxIter  .... 50

Convergence Tolerances:
Energy Change            TolE     ....  2.0000e-07 Eh
Max. Gradient            TolMAXG  ....  3.0000e-05 Eh/bohr
RMS Gradient             TolRMSG  ....  8.0000e-06 Eh/bohr
Max. Displacement        TolMAXD  ....  2.0000e-04 bohr
RMS Displacement         TolRMSD  ....  1.0000e-04 bohr
Strict Convergence                .... False

------------------------------------------------------------------------------
                        ORCA OPTIMIZATION COORDINATE SETUP
------------------------------------------------------------------------------

The optimization will be done in redundant internal coordinates (2022)
Making redundant internal coordinates   ...  (2022 redundants) done
Evaluating the initial hessian          ...  (Almloef) done
Evaluating the coordinates              ...  done
Calculating the B-matrix                .... done
Calculating the G-matrix                .... done
Will constrain atom 0 coordinate 1 
Will constrain atom 0 coordinate 2 
Will constrain atom 0 coordinate 3 
Will constrain atom 1 coordinate 1 
Will constrain atom 1 coordinate 3 
Will constrain atom 2 coordinate 1 
Will constrain atom 2 coordinate 3 
The number of degrees of freedom        ....   10
Storing new coordinates                 .... done

    -----------------------------------------------------------------
                    Redundant Internal Coordinates


    -----------------------------------------------------------------
         Definition                    Initial Value    Approx d2E/dq
    -----------------------------------------------------------------
      1. B(H   1,O   0)                  0.9586         0.522596   
      2. B(H   2,O   0)                  0.9586         0.522596   
      3. A(H   1,O   0,H   2)          104.9312         0.322368   
      4. C_Z(O   0)                      0.0000         1.000000 C 
      5. C_Y(O   0)                      0.0000         1.000000 C 
      6. C_X(O   0)                      0.0000         1.000000 C 
      7. C_Z(H   1)                      0.0000         1.000000 C 
      8. C_X(H   1)                     -0.5840         1.000000 C 
      9. C_Z(H   2)                      0.0000         1.000000 C 
     10. C_X(H   2)                     -0.5840         1.000000 C 
    -----------------------------------------------------------------

Number of atoms                         .... 3
Number of degrees of freedom            .... 7


         *************************************************************
         *                GEOMETRY OPTIMIZATION CYCLE   1            *
         *************************************************************
---------------------------------
CARTESIAN COORDINATES (ANGSTROEM)
---------------------------------
  O      0.000000    0.000000    0.000000
  H     -0.584028   -0.760175    0.000000
  H     -0.584028    0.760175    0.000000

----------------------------
CARTESIAN COORDINATES (A.U.)
----------------------------
  NO LB      ZA    FRAG     MASS         X           Y           Z
   0 O     8.0000    0    15.999    0.000000    0.000000    0.000000
   1 H     1.0000    0     1.008   -1.103653   -1.436523    0.000000
   2 H     1.0000    0     1.008   -1.103653    1.436523    0.000000

--------------------------------
INTERNAL COORDINATES (ANGSTROEM)
--------------------------------
 O      0   0   0     0.000000000000     0.00000000     0.00000000
 H      1   0   0     0.958621267972     0.00000000     0.00000000
 H      1   2   0     0.958621267972   104.93122443     0.00000000

---------------------------
INTERNAL COORDINATES (A.U.)
---------------------------
 O      0   0   0     0.000000000000     0.00000000     0.00000000
 H      1   0   0     1.811531662620     0.00000000     0.00000000
 H      1   2   0     1.811531662620   104.93122443     0.00000000

---------------------
BASIS SET INFORMATION
---------------------
There are 2 groups of distinct atoms

 Group   1 Type O   : 16s9p4d2f1g contracted to 8s5p4d2f1g pattern {82111111/51111/1111/11/1}
 Group   2 Type H   : 7s4p2d1f contracted to 4s4p2d1f pattern {4111/1111/11/1}

Atom   0O    basis set group =>   1
Atom   1H    basis set group =>   2
Atom   2H    basis set group =>   2

-------------------------
BASIS SET IN INPUT FORMAT
-------------------------

 # Basis set for element : H 
 NewGTO H 
 S 4 
   1     190.6916900000      0.0053426372
   2      28.6055320000      0.0412523382
   3       6.5095943000      0.2109935257
   4       1.8412455000      0.8121285458
 S 1 
   1       0.5985372500      1.0000000000
 S 1 
   1       0.2139762400      1.0000000000
 S 1 
   1       0.0803162860      1.0000000000
 P 1 
   1       2.2920000000      1.0000000000
 P 1 
   1       0.8380000000      1.0000000000
 P 1 
   1       0.2920000000      1.0000000000
 D 1 
   1       2.0620000000      1.0000000000
 D 1 
   1       0.6620000000      1.0000000000
 F 1 
   1       1.3970000000      1.0000000000
 P 1 
   1       0.0840631992      1.0000000000
  end;

 # Basis set for element : O 
 NewGTO O 
 S 8 
   1  116506.4690800000      0.0000719877
   2   17504.3497240000      0.0005571488
   3    3993.4513230000      0.0029130031
   4    1133.0063186000      0.0121720511
   5     369.9956959400      0.0430037618
   6     133.6207434900      0.1296476240
   7      52.0356436490      0.3196960856
   8      21.4619393130      0.5893145880
 S 2 
   1      89.8350512520      0.0948480528
   2      26.4280108440      0.9253637879
 S 1 
   1       9.2822824649      1.0000000000
 S 1 
   1       4.0947728533      1.0000000000
 S 1 
   1       1.3255349078      1.0000000000
 S 1 
   1       0.5187723079      1.0000000000
 S 1 
   1       0.1977267645      1.0000000000
 P 5 
   1     191.1525581000      0.0025359574
   2      45.2333567390      0.0202338243
   3      14.3534659220      0.0945180200
   4       5.2422371832      0.3091543280
   5       2.0792418599      0.6846894953
 P 1 
   1       0.8428237142      1.0000000000
 P 1 
   1       0.3361769489      1.0000000000
 P 1 
   1       0.1286399797      1.0000000000
 D 1 
   1       3.7750000000      1.0000000000
 D 1 
   1       1.3000000000      1.0000000000
 D 1 
   1       0.4440000000      1.0000000000
 F 1 
   1       2.6660000000      1.0000000000
 F 1 
   1       0.8590000000      1.0000000000
 G 1 
   1       1.8460000000      1.0000000000
 S 1 
   1       0.0696385351      1.0000000000
 P 1 
   1       0.0435981628      1.0000000000
 D 1 
   1       0.1254637869      1.0000000000
  end;

---------------------------------
AUXILIARY/J BASIS SET INFORMATION
---------------------------------
There are 2 groups of distinct atoms

 Group   1 Type O   : 12s5p4d2f1g contracted to 6s4p3d1f1g pattern {711111/2111/211/2/1}
 Group   2 Type H   : 5s2p1d contracted to 3s1p1d pattern {311/2/1}

Atom   0O    basis set group =>   1
Atom   1H    basis set group =>   2
Atom   2H    basis set group =>   2

-------------------------------------
AUXILIARY/J BASIS SET IN INPUT FORMAT
-------------------------------------

 # Auxiliary/J basis set for element : H 
 NewAuxJGTO H 
 S 3 
   1      15.6752927000      0.1007184237
   2       3.6063578000      0.3404257499
   3       1.2080016000      0.6491996172
 S 1 
   1       0.4726794000      1.0000000000
 S 1 
   1       0.2018100000      1.0000000000
 P 2 
   1       2.0281365000      0.5596620919
   2       0.5358730000      0.5596620919
 D 1 
   1       2.2165124000      1.0000000000
  end;

 # Auxiliary/J basis set for element : O 
 NewAuxJGTO O 
 S 7 
   1    2876.8216605000      0.0168151159
   2    1004.7443032000      0.0340137548
   3     369.7579954000      0.1194951309
   4     142.9442404000      0.2664627624
   5      57.8366425000      0.4202764046
   6      24.3864983000      0.2765077335
   7      10.6622662000      0.0057008815
 S 1 
   1       4.8070437000     -1.0000000000
 S 1 
   1       2.2210770000      1.0000000000
 S 1 
   1       1.0447795000      1.0000000000
 S 1 
   1       0.4968425000      1.0000000000
 S 1 
   1       0.2371384000      1.0000000000
 P 2 
   1      64.2613382000     -0.2731534179
   2      16.3006076000     -0.8168011598
 P 1 
   1       4.3550542000      1.0000000000
 P 1 
   1       1.2019554000      1.0000000000
 P 1 
   1       0.3354196000      1.0000000000
 D 2 
   1       9.2146611000     -0.4661230638
   2       2.8435251000     -0.6600908911
 D 1 
   1       0.9955759000     -1.0000000000
 D 1 
   1       0.3649441000     -1.0000000000
 F 2 
   1       2.6420115000      0.5931563945
   2       0.7345613000      0.5931563945
 G 1 
   1       1.3931000000     -1.0000000000
  end;



           ************************************************************
           *        Program running with 16 parallel MPI-processes    *
           *              working on a common directory               *
           ************************************************************
------------------------------------------------------------------------------
                             ORCA STARTUP CALCULATIONS
                           -- RI-GTO INTEGRALS CHOSEN --
------------------------------------------------------------------------------
------------------------------------------------------------------------------
                   ___                                                        
                  /   \      - P O W E R E D   B Y -                         
                 /     \                                                     
                 |  |  |   _    _      __       _____    __    __             
                 |  |  |  | |  | |    /  \     |  _  \  |  |  /  |          
                  \  \/   | |  | |   /    \    | | | |  |  | /  /          
                 / \  \   | |__| |  /  /\  \   | |_| |  |  |/  /          
                |  |  |   |  __  | /  /__\  \  |    /   |      \           
                |  |  |   | |  | | |   __   |  |    \   |  |\   \          
                \     /   | |  | | |  |  |  |  | |\  \  |  | \   \       
                 \___/    |_|  |_| |__|  |__|  |_| \__\ |__|  \__/        
                                                                              
                      - O R C A' S   B I G   F R I E N D -                    
                                      &                                       
                       - I N T E G R A L  F E E D E R -                       
                                                                              
 v1 FN, 2020, v2 2021, v3 2022-2024                                           
------------------------------------------------------------------------------


----------------------
SHARK INTEGRAL PACKAGE
----------------------

Number of atoms                             ...      3
Number of basis functions                   ...    132
Number of shells                            ...     42
Maximum angular momentum                    ...      4
Integral batch strategy                     ... SHARK/LIBINT Hybrid
RI-J (if used) integral strategy            ... SPLIT-RIJ (Revised 2003 algorithm where possible)
Printlevel                                  ...      1
Contraction scheme used                     ... SEGMENTED contraction
Prescreening option                         ... SCHWARTZ
   Thresh                                   ... 1.000e-12
   Tcut                                     ... 1.000e-14
   Tpresel                                  ... 1.000e-14 
Coulomb Range Separation                    ... NOT USED
Exchange Range Separation                   ... Long Range
   Mu parameter                             ... 3.000e-01
   Scaling (regular/separated)              ... 1.500e-01 8.500e-01
Robust (split-)RI terms used:
  metric    (central integrals)             ... YES
  density   (r.h.s.  integrals)             ... YES
  potential (l.h.s.  integrals)             ... YES
Multipole approximations                    ... NOT USED
Finite Nucleus Model                        ... NOT USED
CABS basis                                  ... NOT available
Auxiliary Coulomb fitting basis             ... AVAILABLE
   # of basis functions in Aux-J            ...     71
   # of shells in Aux-J                     ...     25
   Maximum angular momentum in Aux-J        ...      4
Auxiliary J/K fitting basis                 ... NOT available
Auxiliary Correlation fitting basis         ... NOT available
Auxiliary 'external' fitting basis          ... NOT available

Checking pre-screening integrals            ... done (  0.0 sec) Dimension = 42
   => SHARK Basis and OBASIS are compatible. Storing Pre-screening
Shell pair information
Shell pair cut-off parameter TPreSel        ...   1.0e-14
Total number of shell pairs                 ...       903
Shell pairs after pre-screening             ...       903
Total number of primitive shell pairs       ...      1881
Primitive shell pairs kept                  ...      1823
          la=0 lb=0:    136 shell pairs
          la=1 lb=0:    208 shell pairs
          la=1 lb=1:     91 shell pairs
          la=2 lb=0:    128 shell pairs
          la=2 lb=1:    104 shell pairs
          la=2 lb=2:     36 shell pairs
          la=3 lb=0:     64 shell pairs
          la=3 lb=1:     52 shell pairs
          la=3 lb=2:     32 shell pairs
          la=3 lb=3:     10 shell pairs
          la=4 lb=0:     16 shell pairs
          la=4 lb=1:     13 shell pairs
          la=4 lb=2:      8 shell pairs
          la=4 lb=3:      4 shell pairs
          la=4 lb=4:      1 shell pairs

Checking whether 4 symmetric matrices of dimension 132 fit in memory
:Max Core in MB      =   4096.00
 MB in use           =      4.30
 MB left             =   4091.70
 MB needed           =      0.27
 Data fit in memory  = YES
Calculating RI/J V-Matrix + Cholesky decomp.... done (  0.0 sec)
Calculating Nuclear repulsion               ... done (  0.0 sec) ENN=      9.180367665062 Eh

Diagonalization of the overlap matrix:
Smallest eigenvalue                        ... 1.327e-04
Time for diagonalization                   ...    0.001 sec
Threshold for overlap eigenvalues          ... 1.000e-07
Number of eigenvalues below threshold      ... 0
Time for construction of square roots      ...    0.001 sec
Total time needed                          ...    0.002 sec

-------------------
DFT GRID GENERATION
-------------------

General Integration Accuracy     IntAcc      ... 4.959
Radial Grid Type                 RadialGrid  ... OptM3 with GC (2021)
Angular Grid (max. ang.)         AngularGrid ... 6 (Lebedev-590)
Angular grid pruning method      GridPruning ... 4 (adaptive)
Weight generation scheme         WeightScheme... mBecke (2022)
Basis function cutoff            BFCut       ... 1.0000e-12
Integration weight cutoff        WCut        ... 1.0000e-14
Partially contracted basis set               ... off
Rotationally invariant grid construction     ... off
Angular grids for H and He will be reduced by one unit
Diffuse basis detected: some atoms will have their outermost
                        angular grid increased by 1.

Total number of grid points                  ...    35276
Total number of batches                      ...      553
Average number of points per batch           ...       63
Average number of grid points per atom       ...    11759

------------------
NL GRID GENERATION
------------------

General Integration Accuracy     IntAcc      ... 4.159
Radial Grid Type                 RadialGrid  ... OptM3 with GC (2021)
Angular Grid (max. ang.)         AngularGrid ... 3 (Lebedev-194)
Angular grid pruning method      GridPruning ... 4 (adaptive)
Weight generation scheme         WeightScheme... mBecke (2022)
Basis function cutoff            BFCut       ... 1.0000e-10
Integration weight cutoff        WCut        ... 1.0000e-14
Partially contracted basis set               ... off
Rotationally invariant grid construction     ... off
Angular grids for H and He will be reduced by one unit
Diffuse basis detected: some atoms will have their outermost
                        angular grid increased by 1.

Total number of grid points                  ...     7288
Total number of batches                      ...      115
Average number of points per batch           ...       63
Average number of grid points per atom       ...     2429

--------------------
COSX GRID GENERATION
--------------------

GRIDX 1
-------
General Integration Accuracy     IntAcc      ... 4.020
Radial Grid Type                 RadialGrid  ... OptM3 with GC (2021)
Angular Grid (max. ang.)         AngularGrid ... 2 (Lebedev-110)
Angular grid pruning method      GridPruning ... 4 (adaptive)
Weight generation scheme         WeightScheme... mBecke (2022)
Basis function cutoff            BFCut       ... 1.0000e-12
Integration weight cutoff        WCut        ... 1.0000e-14
Partially contracted basis set               ... on
Rotationally invariant grid construction     ... off
Angular grids for H and He will be reduced by one unit
Diffuse basis detected: some atoms will have their outermost
                        angular grid increased by 1.

Total number of grid points                  ...     4160
Total number of batches                      ...       34
Average number of points per batch           ...      122
Average number of grid points per atom       ...     1387
UseSFitting                                  ... on

GRIDX 2
-------
General Integration Accuracy     IntAcc      ... 4.338
Radial Grid Type                 RadialGrid  ... OptM3 with GC (2021)
Angular Grid (max. ang.)         AngularGrid ... 3 (Lebedev-194)
Angular grid pruning method      GridPruning ... 4 (adaptive)
Weight generation scheme         WeightScheme... mBecke (2022)
Basis function cutoff            BFCut       ... 1.0000e-12
Integration weight cutoff        WCut        ... 1.0000e-14
Partially contracted basis set               ... on
Rotationally invariant grid construction     ... off
Angular grids for H and He will be reduced by one unit
Diffuse basis detected: some atoms will have their outermost
                        angular grid increased by 1.

Total number of grid points                  ...     9576
Total number of batches                      ...       77
Average number of points per batch           ...      124
Average number of grid points per atom       ...     3192
UseSFitting                                  ... on

GRIDX 3
-------
General Integration Accuracy     IntAcc      ... 4.871
Radial Grid Type                 RadialGrid  ... OptM3 with GC (2021)
Angular Grid (max. ang.)         AngularGrid ... 4 (Lebedev-302)
Angular grid pruning method      GridPruning ... 4 (adaptive)
Weight generation scheme         WeightScheme... mBecke (2022)
Basis function cutoff            BFCut       ... 1.0000e-12
Integration weight cutoff        WCut        ... 1.0000e-14
Partially contracted basis set               ... on
Rotationally invariant grid construction     ... off
Angular grids for H and He will be reduced by one unit
Diffuse basis detected: some atoms will have their outermost
                        angular grid increased by 1.

Total number of grid points                  ...    18660
Total number of batches                      ...      147
Average number of points per batch           ...      126
Average number of grid points per atom       ...     6220
UseSFitting                                  ... on
Grids setup in   0.4 sec
Initializing property integral containers    ... done (  0.0 sec)

SHARK setup successfully completed in   0.5 seconds

Maximum memory used throughout the entire STARTUP-calculation: 26.0 MB


           ************************************************************
           *        Program running with 16 parallel MPI-processes    *
           *              working on a common directory               *
           ************************************************************
-------------------------------------------------------------------------------
                                 ORCA GUESS
                   Start orbitals & Density for SCF / CASSCF
-------------------------------------------------------------------------------

------------
SCF SETTINGS
------------
Hamiltonian:
 Density Functional     Method          .... DFT(GTOs)
  Functional kind                       .... Exchange-Correlation
  Functional name                       .... wB97M-V exchange-correlation functional
  Functional family                     .... Hybrid MGGA
  Functional refs                              
    [ 0] N. Mardirossian and M. Head-Gordon.,  J. Chem. Phys. 144, 214110 (2016), doi: 10.1063/1.4952647
  Fraction of HF Exchange (short range) .... 0.1500
  Fraction of HF Exchange ( int64 range )  .... 1.0000
  Range separation parameter mu         .... 0.3000
  Functional external parameters        .... 17
    Parameter  0 _cx00      =  8.500000e-01 : u^00 coefficient for exchange
    Parameter  1 _cx01      =  1.007000e+00 : u^01 coefficient for exchange
    Parameter  2 _cx10      =  2.590000e-01 : u^10 coefficient for exchange
    Parameter  3 _css00     =  4.430000e-01 : u^00 coefficient for same-spin correlation
    Parameter  4 _css04     = -1.437000e+00 : u^04 coefficient for same-spin correlation
    Parameter  5 _css10     = -4.535000e+00 : u^10 coefficient for same-spin correlation
    Parameter  6 _css20     = -3.390000e+00 : u^20 coefficient for same-spin correlation
    Parameter  7 _css43     =  4.278000e+00 : u^43 coefficient for same-spin correlation
    Parameter  8 _cos00     =  1.000000e+00 : u^00 coefficient for opposite-spin correlation
    Parameter  9 _cos10     =  1.358000e+00 : u^10 coefficient for opposite-spin correlation
    Parameter 10 _cos20     =  2.924000e+00 : u^20 coefficient for opposite-spin correlation
    Parameter 11 _cos21     = -8.812000e+00 : u^21 coefficient for opposite-spin correlation
    Parameter 12 _cos60     = -1.390000e+00 : u^60 coefficient for opposite-spin correlation
    Parameter 13 _cos61     =  9.142000e+00 : u^61 coefficient for opposite-spin correlation
    Parameter 14 _alpha     =  1.000000e+00 : fraction of HF exchange
    Parameter 15 _beta      = -8.500000e-01 : fraction of short-range exchange
    Parameter 16 _omega     =  3.000000e-01 : range-separation constant
 Long-range corrected/Screened/Range-Separated Hybrid DFT is turned on
   Amount of maximum screened exact exchange              ....  0.850000
   Range separation parameter mu (erf(mu*r12)/r12)        ....  0.300000
   NL short-range parameter             ....  6.000000
   NL long-range parameter              ....  0.010000
 RI-approximation to the Coulomb term is turned on
   Number of AuxJ basis functions       .... 71
   RIJ-COSX (HFX calculated with COS-X)).... on


General Settings:
 Integral files         IntName         .... aligned
 Hartree-Fock type      HFTyp           .... RHF
 Total Charge           Charge          ....    0
 Multiplicity           Mult            ....    1
 Number of Electrons    NEL             ....   10
 Basis Dimension        Dim             ....  132
 Nuclear Repulsion      ENuc            ....      9.1803676651 Eh

Convergence Acceleration:
 AO-DIIS                CNVDIIS         .... on
   Start iteration      DIISMaxIt       ....    12
   Startup error        DIISStart       ....  0.200000
   # of expansion vecs  DIISMaxEq       ....     5
   Bias factor          DIISBfac        ....   1.050
   Max. coefficient     DIISMaxC        ....  10.000
 MO-DIIS                CNVKDIIS        .... off
 Trust-Rad. Augm. Hess. CNVTRAH         .... off
 SOSCF                 CNVSOSCF           .... on
   Start iteration     SOSCFMaxIt         ....   150
   Startup grad/error  SOSCFStart         ....  0.003300
   Hessian update      SOSCFHessUp        .... L-BFGS
   Autom. constraints  SOSCFAutoConstrain .... off
 Level Shifting         CNVShift        .... on
   Level shift para.    LevelShift      ....    0.2500
   Turn off err/grad.   ShiftErr        ....    0.0010
 Zerner damping         CNVZerner       .... off
 Static damping         CNVDamp         .... on
   Fraction old density DampFac         ....    0.7000
   Max. Damping (<1)    DampMax         ....    0.9800
   Min. Damping (>=0)   DampMin         ....    0.0000
   Turn off err/grad.   DampErr         ....    0.1000

SCF Procedure:
 Maximum # iterations   MaxIter         ....   125
 SCF integral mode      SCFMode         .... Direct
   Integral package                     .... SHARK and LIBINT hybrid scheme
 Reset frequency        DirectResetFreq ....    20
 Integral Threshold     Thresh          ....  1.000e-12 Eh
 Primitive CutOff       TCut            ....  1.000e-14 Eh

Convergence Tolerance:
 Convergence Check Mode ConvCheckMode   .... Total+1el-Energy
 Convergence forced     ConvForced      .... 0
 Energy Change          TolE            ....  1.000e-09 Eh
 1-El. energy change                    ....  1.000e-06 Eh
 Orbital Gradient       TolG            ....  2.000e-06
 Orbital Rotation angle TolX            ....  2.000e-06
 DIIS Error             TolErr          ....  1.000e-08

------------------------------
INITIAL GUESS: MODEL POTENTIAL
------------------------------
Loading Hartree-Fock densities                     ... done
Calculating cut-offs                               ... done
Initializing the effective Hamiltonian             ... done
Setting up the integral package (SHARK)            ... done
Starting the Coulomb interaction                   ... done (   0.0 sec)
Making the grid                                    ... done (   0.0 sec)
Mapping shells                                     ... done
Starting the XC term evaluation                    ... done (   0.0 sec)
  promolecular density results
     # of electrons  =      9.999214459
     EX              =     -8.731071970
     EC              =     -0.316219620
     EX+EC           =     -9.047291590
Transforming the Hamiltonian                       ... done (   0.0 sec)
Diagonalizing the Hamiltonian                      ... done (   0.0 sec)
Back transforming the eigenvectors                 ... done (   0.0 sec)
Now organizing SCF variables                       ... done
                      ------------------
                      INITIAL GUESS DONE (   0.0 sec)
                      ------------------
             **** ENERGY FILE WAS UPDATED (aligned.en.tmp) ****
Finished Guess after   0.2 sec
Maximum memory used throughout the entire GUESS-calculation: 9.9 MB


           ************************************************************
           *        Program running with 16 parallel MPI-processes    *
           *              working on a common directory               *
           ************************************************************

-------------------------------------------------------------------------------------------
                                      ORCA LEAN-SCF
                              memory conserving SCF solver
-------------------------------------------------------------------------------------------

----------------------------------------D-I-I-S--------------------------------------------
Iteration    Energy (Eh)           Delta-E    RMSDP     MaxDP     DIISErr   Damp  Time(sec)
-------------------------------------------------------------------------------------------
               ***  Starting incremental Fock matrix formation  ***
    1    -76.3417472835920847     0.00e+00  4.23e-03  2.86e-02  3.52e-01  0.700   0.3
    2    -76.3866580877643457    -4.49e-02  2.79e-03  2.24e-02  1.65e-01  0.700   0.2
                               ***Turning on AO-DIIS***
    3    -76.4050322448735386    -1.84e-02  1.15e-03  1.24e-02  9.01e-02  0.700   0.2
    4    -76.4159753442075811    -1.09e-02  2.21e-03  2.38e-02  6.37e-02  0.000   0.2
                              *** Initializing SOSCF ***
---------------------------------------S-O-S-C-F--------------------------------------
Iteration    Energy (Eh)           Delta-E    RMSDP     MaxDP     MaxGrad    Time(sec)
--------------------------------------------------------------------------------------
    5    -76.4401432619447263    -2.42e-02  1.52e-04  1.15e-03  3.17e-03     0.3
               *** Restarting incremental Fock matrix formation ***
    6    -76.4401590778633846    -1.58e-05  7.77e-05  5.94e-04  2.48e-04     0.3
    7    -76.4401600790655920    -1.00e-06  4.20e-05  2.92e-04  2.15e-04     0.3
    8    -76.4401605043615433    -4.25e-07  1.60e-05  1.40e-04  4.73e-05     0.3
    9    -76.4401605182169419    -1.39e-08  3.06e-06  2.10e-05  5.89e-06     0.3
   10    -76.4401605186472040    -4.30e-10  5.44e-07  5.23e-06  1.23e-06     0.3
                 **** Energy Check signals convergence ****

               *****************************************************
               *                     SUCCESS                       *
               *           SCF CONVERGED AFTER  10 CYCLES          *
               *****************************************************

Recomputing exchange energy using gridx3       ... done (    0.213 sec)
Old exchange energy                            :     -2.686107475 Eh
New exchange energy                            :     -2.686108156 Eh
Exchange energy change after final integration :     -0.000000680 Eh
Total energy after final integration           :    -76.440161199 Eh
             **** ENERGY FILE WAS UPDATED (aligned.en.tmp) ****

----------------
TOTAL SCF ENERGY
----------------

Total Energy       :        -76.44016119900252 Eh           -2080.04253 eV

Components:
Nuclear Repulsion  :          9.18036766506244 Eh             249.81050 eV
Electronic Energy  :        -85.66309542242790 Eh           -2331.01133 eV
One Electron Energy:       -122.98541945717135 Eh           -3346.60340 eV
Two Electron Energy:         37.32232403474345 Eh            1015.59207 eV

Virial components:
Potential Energy   :       -152.66317305256882 Eh           -4154.17613 eV
Kinetic Energy     :         76.22301185356632 Eh            2074.13360 eV
Virial Ratio       :          2.00284886860484

DFT components:
N(Alpha)           :        4.999994521881 electrons
N(Beta)            :        4.999994521881 electrons
N(Total)           :        9.999989043763 electrons
NL Energy, E(C,NL) :        0.042567238718 Eh       
E(XC)              :       -6.616838824067 Eh       

---------------
SCF CONVERGENCE
---------------

  Last Energy change         ...    4.3026e-10  Tolerance :   1.0000e-09
  Last MAX-Density change    ...    5.2313e-06  Tolerance :   1.0000e-08
  Last RMS-Density change    ...    5.4450e-07  Tolerance :   1.0000e-09
  Last DIIS Error            ...    3.1686e-03  Tolerance :   1.0000e-08
  Last Orbital Gradient      ...    1.2276e-06  Tolerance :   2.0000e-06
  Last Orbital Rotation      ...    3.4057e-06  Tolerance :   2.0000e-06


----------------
ORBITAL ENERGIES
----------------

  NO   OCC          E(Eh)            E(eV) 
   0   2.0000     -19.335789      -526.1536 
   1   2.0000      -1.143982       -31.1293 
   2   2.0000      -0.643371       -17.5070 
   3   2.0000      -0.503379       -13.6976 
   4   2.0000      -0.428120       -11.6497 
   5   0.0000       0.035869         0.9760 
   6   0.0000       0.061187         1.6650 
   7   0.0000       0.083615         2.2753 
   8   0.0000       0.084069         2.2876 
   9   0.0000       0.162558         4.4234 
  10   0.0000       0.176041         4.7903 
  11   0.0000       0.199465         5.4277 
  12   0.0000       0.215207         5.8561 
  13   0.0000       0.221825         6.0362 
  14   0.0000       0.258362         7.0304 
  15   0.0000       0.288950         7.8627 
  16   0.0000       0.306679         8.3451 
  17   0.0000       0.391598        10.6559 
  18   0.0000       0.397409        10.8141 
  19   0.0000       0.429756        11.6942 
  20   0.0000       0.482257        13.1229 
  21   0.0000       0.493881        13.4392 
  22   0.0000       0.494413        13.4537 
  23   0.0000       0.555096        15.1049 
  24   0.0000       0.565165        15.3789 
  25   0.0000       0.582596        15.8532 
  26   0.0000       0.689886        18.7728 
  27   0.0000       0.812607        22.1122 
  28   0.0000       0.851771        23.1779 
  29   0.0000       0.878535        23.9062 
  30   0.0000       0.986452        26.8427 
  31   0.0000       1.030086        28.0301 
  32   0.0000       1.084438        29.5090 
  33   0.0000       1.147442        31.2235 
  34   0.0000       1.178907        32.0797 
  35   0.0000       1.365677        37.1620 
  36   0.0000       1.425800        38.7980 
  37   0.0000       1.481788        40.3215 
  38   0.0000       1.500745        40.8373 
  39   0.0000       1.546885        42.0929 
  40   0.0000       1.625670        44.2367 
  41   0.0000       1.656195        45.0674 
  42   0.0000       1.946960        52.9795 
  43   0.0000       1.981557        53.9209 
  44   0.0000       2.052565        55.8531 
  45   0.0000       2.087280        56.7978 
  46   0.0000       2.302438        62.6525 
  47   0.0000       2.321219        63.1636 
  48   0.0000       2.480125        67.4876 
  49   0.0000       2.484699        67.6121 
  50   0.0000       2.505159        68.1689 
  51   0.0000       2.595000        70.6135 
  52   0.0000       2.634535        71.6894 
  53   0.0000       2.703534        73.5669 
  54   0.0000       2.719981        74.0144 
  55   0.0000       2.753485        74.9261 
  56   0.0000       2.960963        80.5719 
  57   0.0000       3.154031        85.8256 
  58   0.0000       3.239256        88.1446 
  59   0.0000       3.293582        89.6229 
  60   0.0000       3.496669        95.1492 
  61   0.0000       3.778428       102.8162 
  62   0.0000       3.945406       107.3600 
  63   0.0000       3.955467       107.6337 
  64   0.0000       3.982450       108.3680 
  65   0.0000       4.155718       113.0828 
  66   0.0000       4.213111       114.6446 
  67   0.0000       4.321344       117.5897 
  68   0.0000       4.326090       117.7189 
  69   0.0000       4.459878       121.3594 
  70   0.0000       4.647255       126.4582 
  71   0.0000       4.877488       132.7232 
  72   0.0000       4.877927       132.7351 
  73   0.0000       5.345346       145.4543 
  74   0.0000       5.405947       147.1033 
  75   0.0000       5.485361       149.2643 
  76   0.0000       5.755038       156.6026 
  77   0.0000       5.950764       161.9285 
  78   0.0000       6.012845       163.6178 
  79   0.0000       6.094329       165.8351 
  80   0.0000       6.443901       175.3475 
  81   0.0000       6.560697       178.5256 
  82   0.0000       6.781676       184.5388 
  83   0.0000       7.091985       192.9827 
  84   0.0000       7.157778       194.7730 
  85   0.0000       7.268932       197.7977 
  86   0.0000       7.286141       198.2660 
  87   0.0000       7.374036       200.6577 
  88   0.0000       7.413440       201.7300 
  89   0.0000       7.458284       202.9502 
  90   0.0000       7.478173       203.4914 
  91   0.0000       7.691363       209.2926 
  92   0.0000       7.724126       210.1842 
  93   0.0000       7.798114       212.1975 
  94   0.0000       7.847768       213.5486 
  95   0.0000       7.889844       214.6936 
  96   0.0000       7.911140       215.2731 
  97   0.0000       8.038812       218.7472 
  98   0.0000       8.097636       220.3479 
  99   0.0000       8.377366       227.9597 
 100   0.0000       8.567979       233.1466 
 101   0.0000       8.653951       235.4860 
 102   0.0000       8.802964       239.5408 
 103   0.0000       8.817113       239.9258 
 104   0.0000       9.081479       247.1196 
 105   0.0000       9.124108       248.2796 
 106   0.0000       9.911360       269.7018 
 107   0.0000       9.917834       269.8780 
 108   0.0000      10.309358       280.5319 
 109   0.0000      10.397286       282.9245 
 110   0.0000      10.774110       293.1784 
 111   0.0000      10.836921       294.8876 
 112   0.0000      11.019927       299.8675 
 113   0.0000      11.185726       304.3791 
 114   0.0000      11.226316       305.4836 
 115   0.0000      11.391456       309.9773 
 116   0.0000      11.563798       314.6669 
 117   0.0000      11.835098       322.0494 
 118   0.0000      11.883590       323.3689 
 119   0.0000      11.950158       325.1803 
 120   0.0000      11.967245       325.6453 
 121   0.0000      12.350275       336.0681 
 122   0.0000      12.973334       353.0224 
 123   0.0000      13.597271       370.0006 
 124   0.0000      13.692986       372.6051 
 125   0.0000      13.762542       374.4978 
 126   0.0000      14.171769       385.6334 
 127   0.0000      14.520683       395.1279 
 128   0.0000      16.794001       456.9880 
 129   0.0000      16.822720       457.7695 
 130   0.0000      48.645539      1323.7124 
 131   0.0000     256.036417      6967.1051 
------------------
MOLECULAR ORBITALS (RHF, ROHF)
------------------
                      0         1         2         3         4         5   
                 -19.33579  -1.14398  -0.64337  -0.50338  -0.42812   0.03587
                   2.00000   2.00000   2.00000   2.00000   2.00000   0.00000
                  --------  --------  --------  --------  --------  --------
  0O   1s        -0.559602  0.116177  0.000000 -0.042173  0.000000  0.023475
  0O   2s        -0.003123  0.018862 -0.000000 -0.007023  0.000000  0.002977
  0O   3s        -0.358767  0.138487  0.000000 -0.051796 -0.000000  0.032288
  0O   4s        -0.168337  0.073539 -0.000000 -0.026432  0.000000  0.005045
  0O   5s        -0.015355 -0.294555  0.000000  0.112852 -0.000000 -0.040062
  0O   6s         0.009497 -0.457173 -0.000000  0.211086  0.000000 -0.224125
  0O   7s         0.002913 -0.204154 -0.000000  0.236715  0.000001  1.724921
  0O   1pz       -0.000000 -0.000000 -0.000000  0.000000  0.351137  0.000000
  0O   1px        0.001909  0.059033 -0.000000  0.309284 -0.000000  0.075416
  0O   1py       -0.000000  0.000000  0.286425  0.000000 -0.000000 -0.000000
  0O   2pz        0.000000  0.000000  0.000000  0.000000  0.328229 -0.000000
  0O   2px       -0.002499  0.062332 -0.000000  0.284842 -0.000000  0.060172
  0O   2py        0.000000  0.000000  0.264207 -0.000000  0.000000  0.000000
  0O   3pz        0.000000 -0.000000 -0.000000  0.000000  0.315037  0.000000
  0O   3px       -0.002767  0.038097  0.000000  0.248832 -0.000000 -0.113990
  0O   3py        0.000000 -0.000000  0.201171 -0.000000  0.000000  0.000000
  0O   4pz        0.000000  0.000000  0.000000  0.000000  0.173763 -0.000000
  0O   4px       -0.000207  0.009745  0.000000  0.102801 -0.000000 -1.099367
  0O   4py       -0.000000 -0.000000  0.040996  0.000000  0.000000  0.000000
  0O   1dz2       0.000140  0.001006 -0.000000  0.002029  0.000000 -0.000424
  0O   1dxz      -0.000000  0.000000  0.000000 -0.000000 -0.001828 -0.000000
  0O   1dyz       0.000000  0.000000  0.000000 -0.000000 -0.000000 -0.000000
  0O   1dx2y2     0.000012  0.000201  0.000000 -0.001058  0.000000  0.000013
  0O   1dxy      -0.000000  0.000000 -0.004494 -0.000000  0.000000  0.000000
  0O   2dz2      -0.000464  0.007507  0.000000  0.006088 -0.000000  0.002700
  0O   2dxz      -0.000000  0.000000 -0.000000  0.000000 -0.008537  0.000000
  0O   2dyz      -0.000000  0.000000  0.000000 -0.000000  0.000000 -0.000000
  0O   2dx2y2    -0.000008  0.001749 -0.000000 -0.006537 -0.000000 -0.003771
  0O   2dxy      -0.000000 -0.000000 -0.015766  0.000000 -0.000000 -0.000000
  0O   3dz2      -0.001284  0.006715  0.000000  0.007415 -0.000000 -0.057952
  0O   3dxz      -0.000000 -0.000000  0.000000 -0.000000 -0.015228 -0.000000
  0O   3dyz       0.000000 -0.000000  0.000000 -0.000000 -0.000000  0.000000
  0O   3dx2y2    -0.000295  0.000136  0.000000 -0.012599 -0.000000 -0.014269
  0O   3dxy      -0.000000  0.000000 -0.014755  0.000000 -0.000000 -0.000000
  0O   1f0        0.000000  0.000000 -0.000000 -0.000000 -0.000881 -0.000000
  0O   1f+1      -0.000053 -0.000619  0.000000 -0.000708 -0.000000 -0.000872
  0O   1f-1      -0.000000 -0.000000 -0.001256 -0.000000 -0.000000  0.000000
  0O   1f+2      -0.000000 -0.000000 -0.000000  0.000000 -0.000293  0.000000
  0O   1f-2       0.000000  0.000000  0.000000 -0.000000 -0.000000 -0.000000
  0O   1f+3       0.000102  0.001087 -0.000000  0.000620 -0.000000  0.000866
  0O   1f-3       0.000000  0.000000 -0.000137 -0.000000 -0.000000  0.000000
  0O   2f0       -0.000000  0.000000  0.000000  0.000000 -0.004242 -0.000000
  0O   2f+1       0.000451 -0.001460 -0.000000 -0.002597  0.000000  0.006066
  0O   2f-1      -0.000000 -0.000000 -0.002964  0.000000 -0.000000 -0.000000
  0O   2f+2       0.000000  0.000000  0.000000 -0.000000 -0.001217 -0.000000
  0O   2f-2      -0.000000 -0.000000 -0.000000  0.000000  0.000000  0.000000
  0O   2f+3      -0.000657  0.001349  0.000000  0.001017 -0.000000 -0.009131
  0O   2f-3       0.000000  0.000000  0.000649 -0.000000 -0.000000 -0.000000
  0O   1g0        0.000058 -0.000077 -0.000000 -0.000151  0.000000  0.000335
  0O   1g+1       0.000000 -0.000000 -0.000000 -0.000000  0.000406  0.000000
  0O   1g-1      -0.000000 -0.000000 -0.000000  0.000000  0.000000  0.000000
  0O   1g+2      -0.000006  0.000071 -0.000000  0.000150  0.000000  0.000187
  0O   1g-2      -0.000000 -0.000000  0.000231  0.000000  0.000000  0.000000
  0O   1g+3       0.000000  0.000000  0.000000 -0.000000 -0.000466 -0.000000
  0O   1g-3      -0.000000 -0.000000 -0.000000  0.000000  0.000000  0.000000
  0O   1g+4       0.000124 -0.000112 -0.000000 -0.000334  0.000000  0.000238
  0O   1g-4      -0.000000 -0.000000 -0.000502  0.000000  0.000000  0.000000
  0O   8s        -0.001450 -0.027257  0.000000  0.074783 -0.000000  7.972732
  0O   5pz        0.000000  0.000000  0.000000 -0.000000  0.023199 -0.000000
  0O   5px        0.000078  0.000325  0.000000  0.008377  0.000000 -0.999507
  0O   5py       -0.000000  0.000000 -0.001176  0.000000  0.000000  0.000000
  0O   4dz2       0.000002  0.000710  0.000000  0.001093 -0.000000 -0.211216
  0O   4dxz      -0.000000  0.000000 -0.000000 -0.000000 -0.008573  0.000000
  0O   4dyz      -0.000000 -0.000000 -0.000000  0.000000  0.000000 -0.000000
  0O   4dx2y2     0.000081  0.000495 -0.000000 -0.006507 -0.000000 -0.090515
  0O   4dxy       0.000000  0.000000  0.002200 -0.000000 -0.000000 -0.000000
  1H   1s         0.000116 -0.055553 -0.085452 -0.049357  0.000000  0.008159
  1H   2s        -0.003286 -0.080096 -0.152910 -0.094387 -0.000000 -0.026793
  1H   3s        -0.002282 -0.027599 -0.148697 -0.113841 -0.000000 -0.793308
  1H   4s         0.000991  0.009690 -0.050630 -0.040740  0.000000 -3.760715
  1H   1pz        0.000000  0.000000 -0.000000 -0.000000  0.004522 -0.000000
  1H   1px       -0.000034 -0.004066 -0.005415  0.000797 -0.000000 -0.001235
  1H   1py        0.000036 -0.006080 -0.004214 -0.004198  0.000000 -0.002334
  1H   2pz       -0.000000 -0.000000  0.000000  0.000000  0.013819 -0.000000
  1H   2px       -0.000867 -0.005227 -0.012722  0.004107 -0.000000 -0.014655
  1H   2py       -0.001460 -0.008159 -0.007583 -0.010682 -0.000000 -0.020804
  1H   3pz        0.000000  0.000000  0.000000 -0.000000  0.026023 -0.000000
  1H   3px       -0.000667 -0.001232 -0.012055  0.010171 -0.000000 -0.127309
  1H   3py       -0.001041 -0.003589 -0.006771 -0.016508 -0.000000 -0.206383
  1H   1dz2       0.000072  0.001293  0.001387  0.000742  0.000000  0.000283
  1H   1dxz       0.000000  0.000000 -0.000000 -0.000000  0.001286 -0.000000
  1H   1dyz      -0.000000 -0.000000  0.000000  0.000000  0.001675  0.000000
  1H   1dx2y2     0.000066  0.000787 -0.000207  0.001888 -0.000000  0.000234
  1H   1dxy      -0.000111 -0.002018 -0.002654 -0.000847 -0.000000 -0.000210
  1H   2dz2       0.000228  0.000507  0.001897  0.001731  0.000000  0.008146
  1H   2dxz      -0.000000 -0.000000  0.000000  0.000000  0.002604  0.000000
  1H   2dyz       0.000000  0.000000  0.000000 -0.000000  0.004216 -0.000000
  1H   2dx2y2     0.000258  0.000289 -0.001075  0.003976 -0.000000  0.005255
  1H   2dxy      -0.000280 -0.000398 -0.003292 -0.000021 -0.000000 -0.012823
  1H   1f0       -0.000000 -0.000000 -0.000000  0.000000 -0.000828  0.000000
  1H   1f+1      -0.000042  0.000181  0.000584  0.000122 -0.000000  0.000607
  1H   1f-1      -0.000005  0.000275  0.000559  0.000642  0.000000  0.000403
  1H   1f+2       0.000000  0.000000  0.000000 -0.000000 -0.000357 -0.000000
  1H   1f-2       0.000000  0.000000  0.000000 -0.000000  0.000882 -0.000000
  1H   1f+3      -0.000003 -0.000342 -0.000729 -0.000891  0.000000 -0.000452
  1H   1f-3      -0.000098  0.000112  0.000805 -0.000635  0.000000 -0.000011
  1H   4pz       -0.000000 -0.000000 -0.000000  0.000000  0.009923  0.000000
  1H   4px        0.000234  0.002681 -0.003777  0.005724  0.000000 -0.664160
  1H   4py        0.000177  0.002797 -0.002750 -0.000661  0.000000 -0.782060
  2H   1s         0.000116 -0.055553  0.085452 -0.049357  0.000000  0.008159
  2H   2s        -0.003286 -0.080096  0.152910 -0.094387 -0.000000 -0.026793
  2H   3s        -0.002282 -0.027599  0.148697 -0.113841 -0.000001 -0.793309
  2H   4s         0.000991  0.009690  0.050630 -0.040740  0.000000 -3.760716
  2H   1pz        0.000000 -0.000000  0.000000 -0.000000  0.004522  0.000000
  2H   1px       -0.000034 -0.004066  0.005415  0.000797  0.000000 -0.001235
  2H   1py       -0.000036  0.006080 -0.004214  0.004198 -0.000000  0.002334
  2H   2pz       -0.000000  0.000000 -0.000000  0.000000  0.013819 -0.000000
  2H   2px       -0.000867 -0.005227  0.012722  0.004107 -0.000000 -0.014655
  2H   2py        0.001460  0.008159 -0.007583  0.010682  0.000000  0.020804
  2H   3pz       -0.000000 -0.000000 -0.000000  0.000000  0.026023 -0.000000
  2H   3px       -0.000667 -0.001232  0.012055  0.010171 -0.000000 -0.127309
  2H   3py        0.001041  0.003589 -0.006771  0.016508  0.000000  0.206383
  2H   1dz2       0.000072  0.001293 -0.001387  0.000742  0.000000  0.000283
  2H   1dxz      -0.000000 -0.000000 -0.000000  0.000000  0.001286  0.000000
  2H   1dyz      -0.000000 -0.000000 -0.000000  0.000000 -0.001675  0.000000
  2H   1dx2y2     0.000066  0.000787  0.000207  0.001888 -0.000000  0.000234
  2H   1dxy       0.000111  0.002018 -0.002654  0.000847  0.000000  0.000210
  2H   2dz2       0.000228  0.000507 -0.001897  0.001731  0.000000  0.008146
  2H   2dxz      -0.000000  0.000000  0.000000  0.000000  0.002604 -0.000000
  2H   2dyz       0.000000  0.000000  0.000000 -0.000000 -0.004216 -0.000000
  2H   2dx2y2     0.000258  0.000289  0.001075  0.003976  0.000000  0.005255
  2H   2dxy       0.000280  0.000398 -0.003292  0.000021  0.000000  0.012823
  2H   1f0        0.000000  0.000000  0.000000 -0.000000 -0.000828 -0.000000
  2H   1f+1      -0.000042  0.000181 -0.000584  0.000122 -0.000000  0.000607
  2H   1f-1       0.000005 -0.000275  0.000559 -0.000642 -0.000000 -0.000403
  2H   1f+2       0.000000  0.000000  0.000000 -0.000000 -0.000357 -0.000000
  2H   1f-2      -0.000000 -0.000000  0.000000  0.000000 -0.000882  0.000000
  2H   1f+3      -0.000003 -0.000342  0.000729 -0.000891 -0.000000 -0.000452
  2H   1f-3       0.000098 -0.000112  0.000805  0.000635  0.000000  0.000011
  2H   4pz       -0.000000 -0.000000 -0.000000 -0.000000  0.009923  0.000000
  2H   4px        0.000234  0.002681  0.003777  0.005724  0.000000 -0.664160
  2H   4py       -0.000177 -0.002797 -0.002750  0.000662 -0.000000  0.782060
                      6         7         8         9        10        11   
                   0.06119   0.08362   0.08407   0.16256   0.17604   0.19946
                   0.00000   0.00000   0.00000   0.00000   0.00000   0.00000
                  --------  --------  --------  --------  --------  --------
  0O   1s        -0.000000  0.017912  0.000000 -0.000000 -0.005017  0.000000
  0O   2s         0.000000  0.003023  0.000000 -0.000000 -0.001436  0.000000
  0O   3s        -0.000000  0.022216  0.000000  0.000000 -0.004188  0.000000
  0O   4s         0.000000  0.011919  0.000000 -0.000000 -0.010396  0.000000
  0O   5s        -0.000000 -0.071425 -0.000000 -0.000000  0.059355 -0.000000
  0O   6s         0.000000 -0.004609 -0.000000  0.000000 -0.141688 -0.000000
  0O   7s         0.000000  0.541115 -0.000000  0.000000  0.188675 -0.000000
  0O   1pz       -0.000000  0.000000 -0.068050  0.000000  0.000000  0.000000
  0O   1px       -0.000000 -0.022812  0.000000  0.000000 -0.017601  0.000000
  0O   1py       -0.069273 -0.000000  0.000000  0.087831 -0.000000 -0.000000
  0O   2pz       -0.000000  0.000000 -0.087762  0.000000 -0.000000  0.000000
  0O   2px       -0.000000 -0.048372  0.000000 -0.000000  0.004931  0.000000
  0O   2py       -0.013473  0.000000  0.000000  0.101548  0.000000  0.000000
  0O   3pz       -0.000000  0.000000 -0.030326  0.000000  0.000000 -0.000000
  0O   3px       -0.000000 -0.158482  0.000000 -0.000000 -0.013605  0.000000
  0O   3py       -0.002470  0.000000  0.000000  0.355457  0.000000  0.000000
  0O   4pz        0.000000  0.000000 -0.169392  0.000000 -0.000000  0.000000
  0O   4px       -0.000000 -0.134185  0.000000 -0.000000  0.158179  0.000000
  0O   4py        1.835843  0.000000  0.000000  0.895706  0.000000 -0.000000
  0O   1dz2       0.000000 -0.000924 -0.000000  0.000000 -0.000430 -0.000000
  0O   1dxz       0.000000 -0.000000  0.001687  0.000000 -0.000000  0.000000
  0O   1dyz       0.000000  0.000000  0.000000 -0.000000 -0.000000 -0.001988
  0O   1dx2y2     0.000000  0.000564  0.000000  0.000000  0.001554  0.000000
  0O   1dxy       0.000442  0.000000 -0.000000  0.001763  0.000000  0.000000
  0O   2dz2      -0.000000 -0.001493 -0.000000 -0.000000  0.008644 -0.000000
  0O   2dxz      -0.000000  0.000000 -0.005144 -0.000000  0.000000 -0.000000
  0O   2dyz      -0.000000 -0.000000 -0.000000  0.000000 -0.000000 -0.000055
  0O   2dx2y2    -0.000000 -0.004798 -0.000000 -0.000000  0.004508 -0.000000
  0O   2dxy      -0.004711 -0.000000  0.000000 -0.001727 -0.000000 -0.000000
  0O   3dz2      -0.000000 -0.061234 -0.000000 -0.000000  0.033561  0.000000
  0O   3dxz       0.000000 -0.000000  0.042786 -0.000000 -0.000000  0.000000
  0O   3dyz       0.000000 -0.000000  0.000000  0.000000 -0.000000 -0.144247
  0O   3dx2y2    -0.000000  0.003702  0.000000 -0.000000  0.135946  0.000000
  0O   3dxy      -0.040236 -0.000000 -0.000000 -0.014121 -0.000000 -0.000000
  0O   1f0        0.000000 -0.000000 -0.000074  0.000000 -0.000000 -0.000000
  0O   1f+1      -0.000000  0.000160  0.000000  0.000000 -0.000547  0.000000
  0O   1f-1      -0.000677 -0.000000  0.000000 -0.000044  0.000000 -0.000000
  0O   1f+2       0.000000  0.000000  0.000018 -0.000000  0.000000  0.000000
  0O   1f-2       0.000000 -0.000000  0.000000  0.000000 -0.000000 -0.001596
  0O   1f+3       0.000000 -0.000611 -0.000000 -0.000000 -0.000369 -0.000000
  0O   1f-3      -0.000442 -0.000000 -0.000000 -0.000084  0.000000 -0.000000
  0O   2f0       -0.000000 -0.000000  0.004567 -0.000000 -0.000000 -0.000000
  0O   2f+1       0.000000  0.006206 -0.000000  0.000000  0.000697 -0.000000
  0O   2f-1       0.002632 -0.000000  0.000000 -0.001549 -0.000000  0.000000
  0O   2f+2      -0.000000 -0.000000  0.000964  0.000000 -0.000000 -0.000000
  0O   2f-2      -0.000000  0.000000 -0.000000 -0.000000  0.000000  0.030058
  0O   2f+3      -0.000000 -0.007117  0.000000 -0.000000  0.025458  0.000000
  0O   2f-3      -0.005891 -0.000000 -0.000000  0.004540 -0.000000 -0.000000
  0O   1g0        0.000000  0.000566  0.000000  0.000000 -0.000456 -0.000000
  0O   1g+1      -0.000000  0.000000 -0.000554  0.000000  0.000000  0.000000
  0O   1g-1       0.000000  0.000000 -0.000000 -0.000000  0.000000  0.003882
  0O   1g+2       0.000000 -0.000131 -0.000000 -0.000000 -0.002265  0.000000
  0O   1g-2      -0.000135  0.000000 -0.000000  0.000091  0.000000  0.000000
  0O   1g+3       0.000000 -0.000000  0.000497  0.000000 -0.000000 -0.000000
  0O   1g-3       0.000000  0.000000 -0.000000 -0.000000  0.000000  0.001325
  0O   1g+4       0.000000  0.000711 -0.000000  0.000000  0.000257 -0.000000
  0O   1g-4       0.001314  0.000000  0.000000 -0.000601  0.000000  0.000000
  0O   8s         0.000000 -1.523976 -0.000000  0.000000  7.530647 -0.000000
  0O   5pz        0.000000 -0.000000  1.614269 -0.000000 -0.000000  0.000000
  0O   5px       -0.000000  1.785466  0.000000 -0.000000  0.227417  0.000000
  0O   5py        2.052389  0.000000 -0.000000  1.459553 -0.000000  0.000000
  0O   4dz2      -0.000000  0.069791  0.000000 -0.000000 -0.110307  0.000000
  0O   4dxz      -0.000000  0.000000 -0.155258 -0.000000  0.000000 -0.000000
  0O   4dyz      -0.000000  0.000000  0.000000 -0.000000 -0.000000  0.495912
  0O   4dx2y2    -0.000000 -0.115761 -0.000000 -0.000000 -0.764821  0.000000
  0O   4dxy      -0.440802 -0.000000 -0.000000 -0.542892 -0.000000 -0.000000
  1H   1s         0.002578  0.009590  0.000000  0.012935 -0.012127  0.000000
  1H   2s        -0.022903  0.003862  0.000000  0.068062  0.008930  0.000000
  1H   3s         0.898834 -0.473312  0.000000  0.804360  0.082278  0.000000
  1H   4s         5.016565  1.319065  0.000000  1.312431 -4.142965  0.000000
  1H   1pz        0.000000 -0.000000  0.000857 -0.000000 -0.000000  0.000211
  1H   1px        0.000844  0.002175  0.000000 -0.000070 -0.006525  0.000000
  1H   1py       -0.000326  0.004207  0.000000  0.000141  0.003101 -0.000000
  1H   2pz       -0.000000 -0.000000 -0.005025  0.000000 -0.000000  0.000075
  1H   2px        0.007298 -0.022905 -0.000000 -0.016399  0.050010 -0.000000
  1H   2py        0.015840 -0.040748 -0.000000 -0.011549  0.016818  0.000000
  1H   3pz       -0.000000 -0.000000  0.043295 -0.000000 -0.000000 -0.107299
  1H   3px        0.119460 -0.047945  0.000000  0.174154 -0.027521  0.000000
  1H   3py        0.161644 -0.068218  0.000000  0.206603  0.047076  0.000000
  1H   1dz2       0.000160  0.000829  0.000000  0.000742 -0.001491  0.000000
  1H   1dxz       0.000000 -0.000000 -0.000545 -0.000000 -0.000000 -0.000278
  1H   1dyz      -0.000000  0.000000 -0.000141  0.000000  0.000000  0.000073
  1H   1dx2y2     0.000583  0.000187  0.000000  0.000569 -0.000231 -0.000000
  1H   1dxy       0.000112 -0.000591 -0.000000 -0.002130  0.002103  0.000000
  1H   2dz2      -0.014197  0.009780 -0.000000 -0.013331 -0.002200 -0.000000
  1H   2dxz      -0.000000 -0.000000  0.003562  0.000000 -0.000000 -0.025244
  1H   2dyz      -0.000000 -0.000000  0.004169  0.000000 -0.000000 -0.033800
  1H   2dx2y2    -0.015255  0.007170 -0.000000 -0.004663  0.023766 -0.000000
  1H   2dxy       0.020357 -0.016288  0.000000  0.025938  0.019767  0.000000
  1H   1f0        0.000000  0.000000 -0.000735 -0.000000  0.000000  0.004627
  1H   1f+1      -0.000957  0.001155  0.000000 -0.001003 -0.000792  0.000000
  1H   1f-1      -0.002744  0.001572  0.000000 -0.001445  0.000419 -0.000000
  1H   1f+2       0.000000  0.000000 -0.000827 -0.000000 -0.000000  0.001146
  1H   1f-2      -0.000000 -0.000000  0.000717  0.000000 -0.000000 -0.006446
  1H   1f+3       0.003769 -0.001308  0.000000  0.001109  0.000935  0.000000
  1H   1f-3      -0.000006 -0.000023  0.000000 -0.001335 -0.004880  0.000000
  1H   4pz       -0.000000  0.000000 -0.375946 -0.000000  0.000000  1.853994
  1H   4px        0.792632 -0.277330 -0.000000 -0.837958 -1.522779 -0.000000
  1H   4py        0.997350 -0.084678  0.000000 -0.765386  0.542682 -0.000000
  2H   1s        -0.002578  0.009590  0.000000 -0.012935 -0.012127  0.000000
  2H   2s         0.022903  0.003862  0.000000 -0.068062  0.008929  0.000000
  2H   3s        -0.898834 -0.473312 -0.000000 -0.804360  0.082278  0.000000
  2H   4s        -5.016565  1.319065  0.000000 -1.312432 -4.142966  0.000000
  2H   1pz        0.000000 -0.000000  0.000857  0.000000  0.000000 -0.000211
  2H   1px       -0.000844  0.002175  0.000000  0.000070 -0.006525  0.000000
  2H   1py       -0.000326 -0.004207 -0.000000  0.000141 -0.003101 -0.000000
  2H   2pz       -0.000000  0.000000 -0.005025 -0.000000 -0.000000 -0.000075
  2H   2px       -0.007298 -0.022905 -0.000000  0.016399  0.050010 -0.000000
  2H   2py        0.015840  0.040748  0.000000 -0.011549 -0.016818  0.000000
  2H   3pz       -0.000000 -0.000000  0.043295 -0.000000 -0.000000  0.107299
  2H   3px       -0.119460 -0.047945 -0.000000 -0.174154 -0.027521  0.000000
  2H   3py        0.161644  0.068218 -0.000000  0.206603 -0.047076 -0.000000
  2H   1dz2      -0.000160  0.000829 -0.000000 -0.000742 -0.001491  0.000000
  2H   1dxz       0.000000  0.000000 -0.000545 -0.000000 -0.000000  0.000278
  2H   1dyz      -0.000000  0.000000  0.000141  0.000000  0.000000  0.000073
  2H   1dx2y2    -0.000583  0.000187  0.000000 -0.000569 -0.000231  0.000000
  2H   1dxy       0.000112  0.000591 -0.000000 -0.002130 -0.002103  0.000000
  2H   2dz2       0.014197  0.009780  0.000000  0.013331 -0.002200 -0.000000
  2H   2dxz      -0.000000 -0.000000  0.003562 -0.000000 -0.000000  0.025244
  2H   2dyz       0.000000  0.000000 -0.004169  0.000000  0.000000 -0.033800
  2H   2dx2y2     0.015255  0.007170  0.000000  0.004663  0.023766  0.000000
  2H   2dxy       0.020357  0.016288  0.000000  0.025938 -0.019767 -0.000000
  2H   1f0       -0.000000  0.000000 -0.000735  0.000000  0.000000 -0.004627
  2H   1f+1       0.000957  0.001155  0.000000  0.001003 -0.000792 -0.000000
  2H   1f-1      -0.002744 -0.001572 -0.000000 -0.001445 -0.000419 -0.000000
  2H   1f+2       0.000000 -0.000000 -0.000827  0.000000 -0.000000 -0.001146
  2H   1f-2       0.000000  0.000000 -0.000717  0.000000  0.000000 -0.006446
  2H   1f+3      -0.003769 -0.001308 -0.000000 -0.001109  0.000935 -0.000000
  2H   1f-3      -0.000006  0.000023  0.000000 -0.001335  0.004880 -0.000000
  2H   4pz       -0.000000  0.000000 -0.375946  0.000000  0.000000 -1.853994
  2H   4px       -0.792632 -0.277330 -0.000000  0.837958 -1.522779  0.000000
  2H   4py        0.997350  0.084678  0.000000 -0.765386 -0.542681 -0.000000
                     12        13        14        15        16        17   
                   0.21521   0.22182   0.25836   0.28895   0.30668   0.39160
                   0.00000   0.00000   0.00000   0.00000   0.00000   0.00000
                  --------  --------  --------  --------  --------  --------
  0O   1s         0.006878  0.000000 -0.000000 -0.039120 -0.000000  0.000000
  0O   2s         0.002213 -0.000000 -0.000000 -0.009525 -0.000000  0.000000
  0O   3s         0.005001  0.000000 -0.000000 -0.039588 -0.000000 -0.000000
  0O   4s         0.015731 -0.000000 -0.000000 -0.053801 -0.000000  0.000000
  0O   5s        -0.044305  0.000000 -0.000000  0.239401  0.000000 -0.000000
  0O   6s        -0.077537 -0.000000  0.000000 -0.508811 -0.000000  0.000000
  0O   7s        -3.012174 -0.000001  0.000000  2.986821 -0.000000  0.000000
  0O   1pz        0.000000 -0.064922 -0.000000  0.000000 -0.000000  0.000000
  0O   1px        0.115313  0.000000  0.000000 -0.082332 -0.000000  0.000000
  0O   1py       -0.000000 -0.000000  0.107690 -0.000000 -0.040586 -0.143189
  0O   2pz        0.000000 -0.120790  0.000000  0.000000 -0.000000 -0.000000
  0O   2px        0.187590  0.000000  0.000000 -0.001198 -0.000000  0.000000
  0O   2py       -0.000000  0.000000  0.228945  0.000000 -0.084325 -0.043524
  0O   3pz       -0.000000  0.343421  0.000000 -0.000000  0.000000  0.000000
  0O   3px        0.252471  0.000000 -0.000000 -0.306861  0.000000 -0.000000
  0O   3py       -0.000000  0.000000  0.034560  0.000000 -0.093000  0.994026
  0O   4pz        0.000000 -1.606642  0.000000  0.000000 -0.000000 -0.000000
  0O   4px        3.444851  0.000001  0.000000 -0.228324  0.000000 -0.000000
  0O   4py       -0.000001 -0.000000  4.753290  0.000001 -3.955980  4.045199
  0O   1dz2       0.001265  0.000000  0.000000 -0.000831 -0.000000 -0.000000
  0O   1dxz       0.000000 -0.000262  0.000000  0.000000  0.000000  0.000000
  0O   1dyz      -0.000000 -0.000000  0.000000  0.000000 -0.000000 -0.000000
  0O   1dx2y2    -0.001151  0.000000  0.000000  0.000381  0.000000 -0.000000
  0O   1dxy      -0.000000  0.000000 -0.001947  0.000000  0.001412 -0.000481
  0O   2dz2      -0.007480 -0.000000 -0.000000  0.012753  0.000000  0.000000
  0O   2dxz       0.000000 -0.004786 -0.000000  0.000000  0.000000 -0.000000
  0O   2dyz       0.000000  0.000000 -0.000000 -0.000000  0.000000 -0.000000
  0O   2dx2y2     0.003651 -0.000000 -0.000000  0.009831  0.000000  0.000000
  0O   2dxy       0.000000 -0.000000 -0.012824 -0.000000 -0.005270 -0.056013
  0O   3dz2       0.073151  0.000000 -0.000000 -0.086244  0.000000 -0.000000
  0O   3dxz       0.000000 -0.101011 -0.000000  0.000000 -0.000000  0.000000
  0O   3dyz       0.000000  0.000000  0.000000 -0.000000  0.000000 -0.000000
  0O   3dx2y2     0.041430  0.000000 -0.000000 -0.025189  0.000000 -0.000000
  0O   3dxy       0.000000 -0.000000 -0.096721 -0.000000  0.038977 -0.250473
  0O   1f0       -0.000000  0.001847  0.000000  0.000000  0.000000 -0.000000
  0O   1f+1      -0.000376  0.000000 -0.000000 -0.003638 -0.000000 -0.000000
  0O   1f-1      -0.000000  0.000000 -0.002373  0.000000 -0.000214 -0.000717
  0O   1f+2      -0.000000  0.000403  0.000000 -0.000000  0.000000  0.000000
  0O   1f-2      -0.000000  0.000000 -0.000000  0.000000  0.000000 -0.000000
  0O   1f+3       0.000298 -0.000000  0.000000  0.006044  0.000000  0.000000
  0O   1f-3      -0.000000 -0.000000 -0.000430  0.000000  0.000911 -0.002280
  0O   2f0        0.000000 -0.027500 -0.000000  0.000000 -0.000000 -0.000000
  0O   2f+1       0.001286 -0.000000  0.000000  0.019850  0.000000  0.000000
  0O   2f-1       0.000000 -0.000000  0.008173 -0.000000  0.005893 -0.016475
  0O   2f+2       0.000000 -0.007497 -0.000000  0.000000 -0.000000 -0.000000
  0O   2f-2      -0.000000 -0.000000  0.000000 -0.000000 -0.000000  0.000000
  0O   2f+3       0.006673  0.000000 -0.000000 -0.030030  0.000000 -0.000000
  0O   2f-3       0.000000  0.000000 -0.020826  0.000000 -0.016579  0.002409
  0O   1g0        0.000215  0.000000  0.000000  0.001573 -0.000000 -0.000000
  0O   1g+1      -0.000000  0.003262  0.000000 -0.000000  0.000000 -0.000000
  0O   1g-1      -0.000000 -0.000000 -0.000000 -0.000000 -0.000000  0.000000
  0O   1g+2      -0.000883 -0.000000  0.000000  0.000558 -0.000000  0.000000
  0O   1g-2      -0.000000 -0.000000 -0.000122 -0.000000  0.000385  0.000844
  0O   1g+3       0.000000 -0.004087 -0.000000  0.000000 -0.000000 -0.000000
  0O   1g-3      -0.000000 -0.000000  0.000000 -0.000000 -0.000000  0.000000
  0O   1g+4       0.000702  0.000000  0.000000  0.001119 -0.000000  0.000000
  0O   1g-4       0.000000 -0.000000  0.003894 -0.000000  0.000975 -0.002072
  0O   8s       -15.498016 -0.000003 -0.000000  7.152109  0.000001  0.000000
  0O   5pz        0.000000 -1.670953 -0.000000  0.000000 -0.000000  0.000000
  0O   5px        2.401225  0.000000  0.000000  0.162827 -0.000000 -0.000000
  0O   5py       -0.000000 -0.000000  2.540182 -0.000000  0.044629  1.475976
  0O   4dz2       0.449733  0.000000 -0.000000  0.096198  0.000000 -0.000000
  0O   4dxz      -0.000000  0.293411 -0.000000 -0.000000  0.000000 -0.000000
  0O   4dyz      -0.000000  0.000000 -0.000000 -0.000000  0.000000 -0.000000
  0O   4dx2y2    -0.109888 -0.000000 -0.000000  0.002282  0.000000 -0.000000
  0O   4dxy       0.000000  0.000000 -0.743059 -0.000000  0.827443 -2.485983
  1H   1s         0.008998  0.000000 -0.001711 -0.020245 -0.005213 -0.068899
  1H   2s         0.050407  0.000000 -0.092771 -0.191370  0.015048 -0.080882
  1H   3s         1.786938  0.000000  1.844707 -0.034312 -1.224069  3.547510
  1H   4s         8.308949  0.000001 10.493144 -4.345114-17.738798  5.044284
  1H   1pz       -0.000000  0.001759 -0.000000  0.000000  0.000000  0.000000
  1H   1px       -0.003863 -0.000000 -0.003715 -0.000839 -0.005489  0.001819
  1H   1py        0.001882 -0.000000 -0.006036  0.003459  0.007533 -0.003815
  1H   2pz        0.000000 -0.011166  0.000000  0.000000 -0.000000 -0.000000
[...]
  2H   1f-3       0.000000  0.446173  0.218686  0.251016  0.048920 -0.020087
  2H   4pz        0.025213  0.000000  0.000000  0.000000 -0.000000  0.000000
  2H   4px        0.000000 -0.104829  0.062077 -0.057672  0.116220 -0.054509
  2H   4py       -0.000000  0.059037 -0.016115 -0.008020 -0.140362  0.064146



                    ********************************
                    * MULLIKEN POPULATION ANALYSIS *
                    ********************************

-----------------------
MULLIKEN ATOMIC CHARGES
-----------------------
   0 O :   -0.518929
   1 H :    0.259465
   2 H :    0.259465
Sum of atomic charges:   -0.0000000

--------------------------------
MULLIKEN REDUCED ORBITAL CHARGES
--------------------------------
  0 O s       :     3.865264  s :     3.865264
      pz      :     1.893682  p :     4.632397
      px      :     1.518221
      py      :     1.220494
      dz2     :     0.004366  d :     0.019908
      dxz     :     0.003147
      dyz     :     0.000000
      dx2y2   :     0.000783
      dxy     :     0.011612
      f0      :     0.000189  f :     0.001300
      f+1     :     0.000323
      f-1     :     0.000483
      f+2     :     0.000016
      f-2     :     0.000000
      f+3     :     0.000330
      f-3     :    -0.000042
      g0      :     0.000005  g :     0.000060
      g+1     :     0.000003
      g-1     :     0.000000
      g+2     :    -0.000001
      g-2     :     0.000011
      g+3     :     0.000005
      g-3     :     0.000000
      g+4     :     0.000017
      g-4     :     0.000019

  1 H s       :     0.641011  s :     0.641011
      pz      :     0.046267  p :     0.088403
      px      :     0.029142
      py      :     0.012994
      dz2     :     0.000372  d :     0.009976
      dxz     :     0.001473
      dyz     :     0.003228
      dx2y2   :     0.003275
      dxy     :     0.001628
      f0      :     0.000208  f :     0.001146
      f+1     :     0.000048
      f-1     :     0.000081
      f+2     :     0.000034
      f-2     :     0.000269
      f+3     :     0.000167
      f-3     :     0.000339

  2 H s       :     0.641011  s :     0.641011
      pz      :     0.046267  p :     0.088403
      px      :     0.029142
      py      :     0.012994
      dz2     :     0.000372  d :     0.009976
      dxz     :     0.001473
      dyz     :     0.003228
      dx2y2   :     0.003275
      dxy     :     0.001628
      f0      :     0.000208  f :     0.001146
      f+1     :     0.000048
      f-1     :     0.000081
      f+2     :     0.000034
      f-2     :     0.000269
      f+3     :     0.000167
      f-3     :     0.000339



                     *******************************
                     * LOEWDIN POPULATION ANALYSIS *
                     *******************************

----------------------
LOEWDIN ATOMIC CHARGES
----------------------
   0 O :    0.840702
   1 H :   -0.420351
   2 H :   -0.420351

-------------------------------
LOEWDIN REDUCED ORBITAL CHARGES
-------------------------------
  0 O s       :     3.019353  s :     3.019353
      pz      :     1.480547  p :     4.068370
      px      :     1.393437
      py      :     1.194386
      dz2     :     0.011104  d :     0.061962
      dxz     :     0.001445
      dyz     :     0.000000
      dx2y2   :     0.007823
      dxy     :     0.041590
      f0      :     0.001027  f :     0.009152
      f+1     :     0.000509
      f-1     :     0.001217
      f+2     :     0.000162
      f-2     :     0.000000
      f+3     :     0.003507
      f-3     :     0.002729
      g0      :     0.000022  g :     0.000461
      g+1     :     0.000087
      g-1     :     0.000000
      g+2     :     0.000043
      g-2     :     0.000093
      g+3     :     0.000187
      g-3     :     0.000000
      g+4     :     0.000002
      g-4     :     0.000027

  1 H s       :     0.639554  s :     0.639554
      pz      :     0.169525  p :     0.550583
      px      :     0.204805
      py      :     0.176253
      dz2     :     0.014129  d :     0.190935
      dxz     :     0.026280
      dyz     :     0.045449
      dx2y2   :     0.056134
      dxy     :     0.048943
      f0      :     0.006290  f :     0.039280
      f+1     :     0.001781
      f-1     :     0.002241
      f+2     :     0.000645
      f-2     :     0.010083
      f+3     :     0.005581
      f-3     :     0.012658

  2 H s       :     0.639554  s :     0.639554
      pz      :     0.169525  p :     0.550583
      px      :     0.204805
      py      :     0.176253
      dz2     :     0.014129  d :     0.190935
      dxz     :     0.026280
      dyz     :     0.045449
      dx2y2   :     0.056134
      dxy     :     0.048943
      f0      :     0.006290  f :     0.039280
      f+1     :     0.001781
      f-1     :     0.002241
      f+2     :     0.000645
      f-2     :     0.010083
      f+3     :     0.005581
      f-3     :     0.012658



                      *****************************
                      * MAYER POPULATION ANALYSIS *
                      *****************************

  NA   - Mulliken gross atomic population
  ZA   - Total nuclear charge
  QA   - Mulliken gross atomic charge
  VA   - Mayer's total valence
  BVA  - Mayer's bonded valence
  FA   - Mayer's free valence

  ATOM       NA         ZA         QA         VA         BVA        FA
  0 O      8.5189     8.0000    -0.5189     1.9511     1.9511    -0.0000
  1 H      0.7405     1.0000     0.2595     0.9930     0.9930    -0.0000
  2 H      0.7405     1.0000     0.2595     0.9930     0.9930     0.0000

  Mayer bond orders larger than 0.100000
B(  0-O ,  1-H ) :   0.9755 B(  0-O ,  2-H ) :   0.9755 

-------
TIMINGS
-------

Total SCF time: 0 days 0 hours 0 min 1 sec 

Total time                  ....       1.243 sec
Sum of individual times     ....       0.961 sec  ( 77.3%)

SCF preparation             ....       0.168 sec  ( 13.5%)
Fock matrix formation       ....       0.732 sec  ( 58.9%)
  Startup                   ....       0.004 sec  (  0.5% of F)
  Split-RI-J                ....       0.017 sec  (  2.3% of F)
  Chain of spheres X        ....       0.562 sec  ( 76.8% of F)
  XC integration            ....       0.371 sec  ( 50.7% of F)
    XC Preparation          ....       0.007 sec  (  1.8% of XC)
    XC Prescreening         ....       0.026 sec  (  6.9% of XC)
    Basis function eval.    ....       0.114 sec  ( 30.7% of XC)
    Density eval.           ....       0.042 sec  ( 11.4% of XC)
    XC-Functional eval.     ....       0.008 sec  (  2.2% of XC)
    XC-Potential eval.      ....       0.060 sec  ( 16.2% of XC)
Diagonalization             ....       0.000 sec  (  0.0%)
Density matrix formation    ....       0.005 sec  (  0.4%)
Total Energy calculation    ....       0.004 sec  (  0.3%)
Population analysis         ....       0.016 sec  (  1.3%)
Orbital Transformation      ....       0.008 sec  (  0.7%)
Orbital Orthonormalization  ....       0.000 sec  (  0.0%)
DIIS solution               ....       0.011 sec  (  0.9%)
SOSCF solution              ....       0.017 sec  (  1.4%)
Finished LeanSCF after   1.3 sec

Maximum memory used throughout the entire LEANSCF-calculation: 8.5 MB


           ************************************************************
           *        Program running with 16 parallel MPI-processes    *
           *              working on a common directory               *
           ************************************************************

------------------------------------------------------------------------------
                         ORCA PROPERTY INTEGRAL CALCULATIONS
------------------------------------------------------------------------------

GBWName                                   ... aligned.gbw
Number of atoms                           ...      3
Number of basis functions                 ...    132
Max core memory                           ...   4096 MB

Dipole integrals                          ... YES
Quadrupole integrals                      ... YES
Linear momentum integrals                 ...  NO
Angular momentum integrals                ...  NO
Higher moments length integrals           ...  NO
Higher moments velocity integrals         ...  NO
Kinetic energy integrals                  ...  NO
GIAO right hand sides                     ...  NO
GIAO dipole derivative integrals          ...  NO
SOC integrals                             ...  NO
EPR diamagnetic integrals (GIAO)          ...  NO
EPR gauge integrals                       ...  NO
Field gradient integrals                  ...  NO (   0 nuclei)
Spin-dipole/Fermi contact integrals       ...  NO (   0 nuclei)
Contact density integrals                 ...  NO (   0 nuclei)
Nucleus-orbit integrals                   ...  NO (   0 nuclei)
Geometric perturbations                   ...  NO (   3 nuclei)

Choice of electric origin   ... Center of mass
Position of electric origin ... ( -0.1235, -0.0000, -0.0000) 
Choice of magnetic origin   ... GIAO
Position of magnetic origin ... (  0.0000,  0.0000,  0.0000) 

Calculating integrals                     ... Electric Dipole (Length)     done (  0.0 sec)
Calculating integrals                     ... Electric Quadrupole (Length) done (  0.0 sec)

Property integrals calculated in   0.0 sec

Maximum memory used throughout the entire PROPINT-calculation: 10.4 MB

-------------------------   --------------------
FINAL SINGLE POINT ENERGY       -76.440161122977
-------------------------   --------------------

                                *** OPTIMIZATION RUN DONE ***



           ************************************************************
           *        Program running with 16 parallel MPI-processes    *
           *              working on a common directory               *
           ************************************************************

------------------------------------------------------------------------------
                              ORCA PROPERTY CALCULATIONS
------------------------------------------------------------------------------

GBWName                                 ... aligned.gbw
Number of atoms                         ...      3
Number of basis functions               ...    132
Max core memory                         ...   4096 MB

Electric properties:
Dipole moment                           ... YES
Quadrupole moment                       ... YES
Static polarizability (Dipole/Dipole)   ...  NO
Static polarizability (Dipole/Quad.)    ...  NO
Static polarizability (Quad./Quad.)     ...  NO
Static polarizability (Velocity)        ...  NO
Static hyperpolarizability              ...  NO

Atomic electric properties:
Dipole moment                           ...  NO
Quadrupole moment                       ...  NO
Static polarizability                   ...  NO

Choice of electric origin               ... Center of mass
Position of electric origin             ...    -0.123506    -0.000000    -0.000000

General magnetic properties:
Magnetizability                         ...  NO

EPR properties:
g-Tensor (aka g-matrix)                 ...  NO
Zero-Field splitting spin-orbit         ...  NO
Zero-field splitting spin-spin          ...  NO
Hyperfine couplings                     ...  NO (   0 nuclei)
Quadrupole couplings                    ...  NO (   0 nuclei)
Contact density                         ...  NO (   0 nuclei)

NMR properties:
Chemical shifts                         ...  NO (   0 nuclei)
Spin-rotation constants                 ...  NO (   0 nuclei)
Spin-spin couplings                     ...  NO (   0 nuclei,    0 pairs)

Choice of magnetic origin               ... GIAO
Position of magnetic origin             ...     0.000000     0.000000     0.000000

Properties with geometric perturbations:
SCF Hessian                             ...  NO
IR spectrum                             ...  NO
VCD spectrum                            ...  NO
X-ray spectroscopy properties:
SCF XES/XAS/RIXS spectra                ...  NO

SCF SOC stabilization energy            ...  NO
Diagonal Born-Oppenheimer correction    ...  NO

-------------
DIPOLE MOMENT
-------------

Method             : SCF
Type of density    : Electron Density
Multiplicity       :   1
Irrep              :   0
Energy             :   -76.4401611229766331 Eh
Basis              : AO
                                X                 Y                 Z
Electronic contribution:      0.242421262      -0.000000002      -0.000000004
Nuclear contribution   :     -0.972243835      -0.000000002      -0.000000000
                        -----------------------------------------
Total Dipole Moment    :     -0.729822574      -0.000000004      -0.000000004
                        -----------------------------------------
Magnitude (a.u.)       :      0.729822574
Magnitude (Debye)      :      1.855061558



--------------------
Rotational spectrum 
--------------------
 
Rotational constants in cm-1:            27.604513            14.468214             9.492800 
Rotational constants in MHz :        827562.473948        433746.145571        284586.997773 

Dipole components along the rotational axes: 
x,y,z [a.u.] :    -0.000000     0.729823    -0.000000 
x,y,z [Debye]:    -0.000000     1.855062    -0.000000 

 

Dipole moment calculation done in   0.0 sec 

-----------------
QUADRUPOLE MOMENT
-----------------

Method             : SCF
Type of density    : Electron Density
Multiplicity       :   1
Irrep              :   0
Energy             :   -76.4401611229766331 Eh
Basis              : AO

                XX              YY              ZZ              XY              XZ              YZ
  NUC        2.043405625     4.127801493     0.000000000     0.000000004    -0.000000000    -0.000000000
  EL        -6.730183646    -7.454052209    -5.818080240    -0.000000012     0.000000016    -0.000000007
  TOT       -4.686778021    -3.326250716    -5.818080240    -0.000000007     0.000000016    -0.000000007 (a.u.)
            -6.303876726    -4.473920971    -7.825516901    -0.000000010     0.000000022    -0.000000009 (Buckingham)

diagonalized tensor:
            -5.818080240    -4.686778021    -3.326250716 (a.u.)
            -7.825516901    -6.303876726    -4.473920971 (Buckingham)
            -4.873236105    -0.308315580     5.181551686 (traceless form in Buckingham)

            -0.000000014    -1.000000000    -0.000000005
             0.000000003    -0.000000005     1.000000000
             1.000000000    -0.000000014    -0.000000003
        
Isotropic quadrupole :    -4.610369659

Quadrupole moment calculation done in   0.0 sec (  0.0 sec for integrals)

Maximum memory used throughout the entire PROP-calculation: 5.2 MB

--------------------------------
SUGGESTED CITATIONS FOR THIS RUN
--------------------------------

Below you find a list of papers that are relevant to this ORCA run
We neither can nor want to force you to cite these papers, but we appreciate if you do
You receive ORCA, which is the product of decades of hard work by many enthusiastic individuals, for free
The only thing we kindly ask in return is that you cite our papers,
We deeply appreciate it, if you show your appreciation for ORCA by not just citing the generic ORCA reference.

Please note that relegating all ORCA citations to the supporting information does *not* help us.
SI sections are not indexed - citations you put there will not count into any citation statistics
But we need these citations in order to attract the funding resources that allow us to do what we are doing

Therefore, if you are a happy ORCA user, please consider citing a few of the papers listed below in the main body of your paper

In addition to the list printed below, the program has created the file aligned.bibtex that contains the list in bibtex format
You can import this file easily into all common literature databanks and citation aid programs


List of essential papers. We consider these as the minimum necessary citations

  1. Neese, F.
     Software update: the ORCA program system, version 6.0
     WIRES Comput. Molec. Sci. 2025 15(1), e70019
     doi.org/10.1002/wcms.7019

List of papers to cite with high priority. The work reported in these papers was absolutely
necessary for this run to complete.
Our perspective: the developers of density functionals and basis sets usually get cited in chemistry papers
Good! But without the algorithms to do something with them, the functionals or basis sets would not do anything.
Hence, in our opinion, the algorithm design and method developments papers are equally worthy of getting cited

  1. Neese, F.
     An improvement of the resolution of the identity approximation for the formation of the Coulomb matrix
     J. Comp. Chem. 2003 24(14), 1740-1747
     doi.org/10.1002/jcc.10318
  2. Neese, F.; Wennmohs, F.; Hansen, A.; Becker, U.
     Efficient, approximate and parallel Hartree-Fock and hybrid DFT calculations. A 'chain-of-spheres' algorithm for the Hartree-Fock exchange
     Chem. Phys. 2009 356(1-3), 98-109
     doi.org/10.1016/j.chemphys.2008.10.036
  3. Lehtola, S.; Steigemann, C.; Oliveira, M.; Marques, M.
     Recent developments in Libxc - A comprehensive library of functionals for density functional theory
     Software X 2018 7 , 
     doi.org/10.1016/j.softx.2017.11.002
  4. Helmich-Paris, B.; de Souza, B.; Neese, F.; Izsák, R.
     An improved chain of spheres for exchange algorithm
     J. Chem. Phys. 2021 155(10), 104109
     doi.org/10.1063/5.0058766
  5. Neese, F.
     The SHARK Integral Generation and Digestion System
     J. Comp. Chem. 2022 44(3), 381
     doi.org/10.1002/jcc.26942

List of suggested additional citations. These are papers that are important in the 'surrounding' of 
of this run, or papers that preceded the highly important papers. If you like your results we are grateful for a citation.

  1. Izsak, R.; Neese, F.
     An overlap fitted chain of spheres exchange method
     J. Chem. Phys. 2011 135 , 144105
     doi.org/10.1063/1.3646921
  2. Izsak, R.; Hansen, A.; Neese, F.
     The resolution of identity and chain of spheres approximations for the LPNO-CCSD singles Fock term
     Molec. Phys. 2012 110 , 2413-2417
     doi.org/10.1080/00268976.2012.687466
  3. Neese, F.
     The ORCA program system
     WIRES Comput. Molec. Sci. 2012 2(1), 73-78
     doi.org/10.1002/wcms.81
  4. Izsak, R.; Neese, F.; Klopper, W.
     Robust fitting techniques in the chain of spheres approximation to the Fock exchange: The role of the complementary space
     J. Chem. Phys. 2013 139 , 
     doi.org/10.1063/1.4819264
  5. Neese, F.
     Software update: the ORCA program system, version 4.0
     WIRES Comput. Molec. Sci. 2018 8(1), 1-6
     doi.org/10.1002/wcms.1327
  6. Neese, F.; Wennmohs, F.; Becker, U.; Riplinger, C.
     The ORCA quantum chemistry program package
     J. Chem. Phys. 2020 152(22), 224108
     doi.org/10.1063/5.0004608
  7. Neese, F.
     Software update: The ORCA program system—Version 5.0
     WIRES Comput. Molec. Sci. 2022 12(1), e1606
     doi.org/10.1002/wcms.1606

List of optional additional citations

  1. Neese, F.
     Approximate second-order SCF convergence for spin unrestricted wavefunctions
     Chem. Phys. Lett. 2000 325(1-3), 93-98
     doi.org/10.1016/s0009-2614(00)00662-x

Timings for individual modules:

Sum of individual times          ...       13.259 sec (=   0.221 min)
Startup calculation              ...        2.141 sec (=   0.036 min)  16.2 %
SCF iterations                   ...        7.535 sec (=   0.126 min)  56.8 %
Property integrals               ...        0.855 sec (=   0.014 min)   6.4 %
Property calculations            ...        0.267 sec (=   0.004 min)   2.0 %
SCF Gradient evaluation          ...        2.455 sec (=   0.041 min)  18.5 %
Geometry relaxation              ...        0.005 sec (=   0.000 min)   0.0 %
                             ****ORCA TERMINATED NORMALLY****
TOTAL RUN TIME: 0 days 0 hours 0 minutes 14 seconds 44 msec
