
                                 *****************
                                 * O   R   C   A *
                                 *****************

                                            #,                                       
                                            ###                                      
                                            ####                                     
                                            #####                                    
                                            ######                                   
                                           ########,                                 
                                     ,,################,,,,,                         
                               ,,#################################,,                 
                          ,,##########################################,,             
                       ,#########################################, ''#####,          
                    ,#############################################,,   '####,        
                  ,##################################################,,,,####,       
                ,###########''''           ''''###############################       
              ,#####''   ,,,,##########,,,,          '''####'''          '####       
            ,##' ,,,,###########################,,,                        '##       
           ' ,,###''''                  '''############,,,                           
         ,,##''                                '''############,,,,        ,,,,,,###''
      ,#''                                            '''#######################'''  
     '                                                          ''''####''''         
             ,#######,   #######,   ,#######,      ##                                
            ,#'     '#,  ##    ##  ,#'     '#,    #''#        ,####,    ,#,          
            ##       ##  ##   ,#'  ##            #'  '#       #'       ,# #          
            ##       ##  #######   ##           ,######,      #####,      #          
            '#,     ,#'  ##    ##  '#,     ,#' ,#      #,     #,   #      #          
             '#######'   ##     ##  '#######'  #'      '#     '####' #    #          



                #########################################################
                #                        -***-                          #
                #          Department of theory and spectroscopy        #
                #                                                       #
                #                      Frank Neese                      #
                #                                                       #
                #     Directorship, Architecture, Infrastructure        #
                #                    SHARK, DRIVERS                     #
                #        Core code/Algorithms in most modules           #
                #                                                       #
                #        Max Planck Institute fuer Kohlenforschung      #
                #                Kaiser Wilhelm Platz 1                 #
                #                 D-45470 Muelheim/Ruhr                 #
                #                      Germany                          #
                #                                                       #
                #                  All rights reserved                  #
                #                        -***-                          #
                #########################################################


                         Program Version 6.1.0  -  RELEASE   -
                                (GIT: $679e74b$)
                          ($2025-06-10 18:02:51 +0200$)


 With contributions from (in alphabetic order):
[Max-Planck-Institut fuer Kohlenforschung]                               
  Daniel Aravena         : Magnetic Suceptibility                        
  Michael Atanasov       : Ab Initio Ligand Field Theory (pilot matlab implementation)
  Alexander A. Auer      : GIAO ZORA, VPT2 properties, NMR spectrum      
  Ute Becker             : All parallelization in ORCA, NUMFREQ, NUMCALC 
  Giovanni Bistoni       : ED, misc. LED, open-shell LED, HFLD           
  Dmytro Bykov           : pre 5.0 version of the SCF Hessian            
  Marcos Casanova-Páez   : Triplet and SCS-CIS(D). UHF-(DLPNO)-IP/EA/STEOM-CCSD. UHF-CVS-IP/STEOM-CCSD   
  Vijay G. Chilkuri      : MRCI spin determinant printing, contributions to CSF-ICE 
  Pauline Colinet        : FMM embedding                                 
  Dipayan Datta          : RHF DLPNO-CCSD density                        
  Achintya Kumar Dutta   : EOM-CC, STEOM-CC                              
  Nicolas Foglia         : Exact transition moments, OPA infrastructure, MCD improvements    
  Dmitry Ganyushin       : Spin-Orbit,Spin-Spin,Magnetic field MRCI      
  Miquel Garcia-Rates    : C-PCM and meta-GGA Hessian, CCSD/C-PCM, Gaussian charge scheme 
  Tiago L. C. Gouveia    : GS-ROHF, GS-ROCIS                             
  Yang Guo               : DLPNO-NEVPT2, F12-NEVPT2, CIM, IAO-localization        
  Andreas Hansen         : Spin unrestricted coupled pair/coupled cluster methods 
  Ingolf Harden          : AUTO-CI MPn and infrastructure                
  Benjamin Helmich-Paris : MC-RPA, TRAH-(SCF,CASSCF), AVAS, COSX integrals, SCF dyn. polar., MC-PDFT, srDFT 
  Lee Huntington         : MR-EOM, pCC                                   
  Robert Izsak           : Overlap fitted RIJCOSX, COSX-SCS-MP3, EOM     
  Riya Kayal             : Wick's Theorem for AUTO-CI, AUTO-CI UHF-CCSDT 
  Emily Kempfer          : AUTO-CI RHF CISDT and CCSDT, approximate NEVPT4
  Christian Kollmar      : KDIIS, OOCD, Brueckner-CCSD(T), CCSD density, CASPT2, CASPT2-K, improved NEVPT2 
  Axel Koslowski         : Symmetry handling                             
  Simone Kossmann        : meta-GGA functionals, TD-DFT gradient, OOMP2, (MP2 Hessian; deprecated post 5.0) 
  Lucas Lang             : DCDCAS, Hyperfine gauge corrections, ICE-SOC+SSC
  Marvin Lechner         : AUTO-CI (C++ implementation), FIC-MRCC        
  Spencer Leger          : CASSCF response                               
  Dagmar Lenk            : GEPOL surface, SMD, ORCA-2-JSON               
  Dimitrios Liakos       : Extrapolation schemes; Compound Job, Property file
  Dimitrios Manganas     : Further ROCIS development; embedding schemes. LFT, Crystal Embedding 
  Dimitrios Pantazis     : SARC Basis sets                               
  Anastasios Papadopoulos: AUTO-CI, single reference methods and gradients 
  Taras Petrenko         : pre 6.0 DFT Hessian and TD-DFT gradient,  ECA, NRVS 
  Petra Pikulova         : Analytic Raman intensities                    
  Peter Pinski           : DLPNO-MP2, DLPNO-MP2 Gradient                 
  Shashank Vittal Rao    : ES-AILFT, MagRelax                            
  Christoph Reimann      : Effective Core Potentials                     
  Marius Retegan         : Local ZFS, SOC                                
  Christoph Riplinger    : Optimizer, TS searches, QM/MM, DLPNO-CCSD(T), (RO)-DLPNO pert. Triples 
  Michael Roemelt        : Original ROCIS implementation, recursive CI coupling coefficients
  Masaaki Saitow         : Open-shell DLPNO-CCSD energy and density      
  Barbara Sandhoefer     : DKH picture change effects                    
  Yorick L. A. Schmerwitz: GMF and freeze-and-release deltaSCF, NEB S-IDPP initial path                    
  Kantharuban Sivalingam : CASSCF convergence/infrastructure, NEVPT2, NEVPT3, NEVPT4(SD), FIC-MRCI and CEPA variants
  Bernardo de Souza      : ESD, SOC TD-DFT                               
  Georgi L. Stoychev     : AutoAux, RI-MP2 NMR, DLPNO-MP2 response, X2C  
  Van Anh Tran           : RI-MP2 g-tensors                              
  Willem Van den Heuvel  : Paramagnetic NMR                              
  Zikuan Wang            : NOTCH, Electric field optimization            
  Frank Wennmohs         : Technical directorship and infrastructure     
  Hang Xu                : AUTO-CI-Response properties                   
                                                                         
[FACCTs GmbH]                                                            
  Markus Bursch, Nicolas Foglia, Miquel Garcia-Rates, Ingolf Harden, Hagen Neugebauer, Anastasios Papadopoulos, 
  Christoph Riplinger, Bernardo de Souza, Georgi L. Stoychev                                                    
                                                                 
  APM, various basis sets, CI-OPT, improved COSX, DLPNO-Multilevel,           
  DOCKER, DRACO, updates on ESD, Fragmentator, GOAT, IRC, LR-CPCM, L-BFGS, MBIS, meta-GGA TD-DFT gradient, ML-optimized integration grids, 
  MM, NACMEs, nearIR, NEB, NEB-TS, NL-DFT gradient (VV10), 2- and 3-layer-ONIOM, interface openCOSMO-RS, QMMM,   
  Crystal-QMMM, RESP, rigid body optimization, SF, symmetry and pop. for TD-DFT, various functionals, SOLVATOR                                   
                                                                         
[Other institutions]                                                     
  V. Asgeirsson          : NEB                                           
  Christoph Bannwarth    : sTDA-DFT, sTD-DFT, PBEh-3c, B97-3c, D3        
  Giovanni Bistoni       : ETS/NOCV, ADLD/ADEX, COVALED                  
  Martin Brehm           : Molecular dynamics                            
  Ronald Cardenas        : ETS/NOCV                                      
  Martina Colucci        : COVALED                                       
  Sebastian Ehlert       : rSCAN, r2SCAN, r2SCAN-3c, D4, dhf basis sets  
  Marvin Friede          : D4 for Fr, Ra, Ac-Lr                          
  Lars Goerigk           : TD-DFT with DH, B97 family of functionals     
  Stefan Grimme          : VdW corrections, initial TS optimization, DFT functionals, gCP, sTDA/sTD-DF 
  Waldemar Hujo          : DFT-NL                                        
  H. Jonsson             : NEB                                           
  Holger Kruse           : gCP                                           
  Marcel Mueller         : wB97X-3c, vDZP basis set                      
  Hagen Neugebauer       : wr2SCAN, Native XTB                           
  Gianluca Regni         : ADLD/ADEX                                     
  Tobias Risthaus        : pre 6.0 range-separated hybrid DFT and stability analysis
  Lukas Wittmann         : regularized MP2, r2SCAN double-hybrids, wr2SCAN        
                                                                         
We gratefully acknowledge several colleagues who have allowed us to      
interface, adapt or use parts of their codes:                            
  Ed Valeev, F. Pavosevic, A. Kumar             : LibInt (2-el integral package), F12 methods 
  Garnet Chan, S. Sharma, J. Yang, R. Olivares  : DMRG                   
  Ulf Ekstrom                                   : XCFun DFT Library      
  Mihaly Kallay                                 : mrcc  (arbitrary order and MRCC methods)
  Frank Weinhold                                : gennbo (NPA and NBO analysis)           
  Simon Mueller                                 : openCOSMO-RS                            
  Christopher J. Cramer and Donald G. Truhlar   : smd solvation model                     
  S Lehtola, MJT Oliveira, MAL Marques          : LibXC Library                           
  Liviu Ungur et al                             : ANISO software                          


 Your calculation uses the libint2 library for the computation of 2-el integrals
 For citations please refer to: http://libint.valeyev.net

 Your ORCA version has been built with support for libXC version: 7.0.0
 For citations please refer to: https://libxc.gitlab.io

 This ORCA versions uses:
   CBLAS   interface :  Fast vector & matrix operations
   LAPACKE interface :  Fast linear algebra routines
   SCALAPACK package :  Parallel linear algebra routines
   Shared memory     :  Shared parallel matrices
   BLAS/LAPACK       :  OpenBLAS 0.3.29  USE64BITINT DYNAMIC_ARCH NO_AFFINITY Cooperlake SINGLE_THREADED
        Core in use  :  Cooperlake
   Copyright (c) 2011-2014, The OpenBLAS Project


  ***********************************
  * Starting time: Tue Dec  2 17:21:55 2025
  * Host name:     Brock-Desktop
  * Process ID:    206833
  * Working dir.:  /home/brdyer/water
  ***********************************

Your calculation utilizes the DFT-NL dispersion correction.
Cite in your paper:
Vydrov, O. A.; Van Voorhis, T. J. Chem. Phys. 2010, 133, 244103
Hujo, W.; Grimme, S. J. Chem. Theory Comput. 2011, 7, 3866 
   

Warning: RI is on but no J-basis has been assigned. Assigning Def2/J (nothing to worry about!)
================================================================================

----- Orbital basis set information -----
Your calculation utilizes the basis: def2-QZVPPD
   F. Weigend and R. Ahlrichs, Phys. Chem. Chem. Phys. 7, 3297 (2005).
   D. Rappoport and F. Furche, J. Chem. Phys. 133, 134105 (2010)
   D. Rappoport, J. Chem. Phys. 155, 124102 (2021).

----- AuxJ basis set information -----
Your calculation utilizes the auxiliary basis: def2/J
   H-Rn: F. Weigend, Phys. Chem. Chem. Phys. 8, 1057 (2006).
   Fr-Lr: K. Eichkorn, F. Weigend, O. Treutler, R. Ahlrichs; Theor. Chem. Acc. 97, 119 (1997).

================================================================================
                                        WARNINGS
                       Please study these warnings very carefully!
================================================================================


WARNING: B97M-V or wB97M-V functional requested.
  ===> : libXC variant has now been activated.
         Any manually given DFX/HFX/RangeSep scaling parameters are IGNORED!


WARNING: Geometry Optimization
  ===> : Switching off AutoStart
         For restart on a previous wavefunction, please use MOREAD

WARNING: Analytic gradients for DFT-NL dispersion can only be done using the self-consistent method,
  ===>   Switching to SCNL

WARNING: Self-consistent DFT-NL dispersion not compatible with AutoTRAH.
  ===>   Switching AutoTRAH off


================================================================================
                                       INPUT FILE
================================================================================
NAME = water.inp
|  1> # avogadro generated ORCA file
|  2> # H2O | Geometry Optimization | wB97M-V/def2-QZVPPD
|  3> # 
|  4> !Opt wB97M-V def2-QZVPPD PrintMOs PrintBasis VeryTightSCF VeryTightOpt DEFGRID3
|  5> %elprop
|  6>     Dipole True
|  7>     Quadrupole True
|  8> end
|  9> %pal
| 10>     nprocs 16
| 11> end
| 12> * xyz 0 1
| 13>    O      5.736637    3.296256    2.732843
| 14>    H      4.932128    3.398823    2.238126
| 15>    H      5.754947    3.927980    3.442132
| 16> *
| 17> 
| 18> 
| 19> 
| 20> 
| 21>                          ****END OF INPUT****
================================================================================

                       *****************************
                       * Geometry Optimization Run *
                       *****************************

Geometry optimization settings:
Update method            Update   .... BFGS
Choice of coordinates    CoordSys .... (2022) Redundant Internals
Initial Hessian          InHess   .... Almloef's Model
Max. no of cycles        MaxIter  .... 50

Convergence Tolerances:
Energy Change            TolE     ....  2.0000e-07 Eh
Max. Gradient            TolMAXG  ....  3.0000e-05 Eh/bohr
RMS Gradient             TolRMSG  ....  8.0000e-06 Eh/bohr
Max. Displacement        TolMAXD  ....  2.0000e-04 bohr
RMS Displacement         TolRMSD  ....  1.0000e-04 bohr
Strict Convergence                .... False

------------------------------------------------------------------------------
                        ORCA OPTIMIZATION COORDINATE SETUP
------------------------------------------------------------------------------

The optimization will be done in redundant internal coordinates (2022)
Making redundant internal coordinates   ...  (2022 redundants) done
Evaluating the initial hessian          ...  (Almloef) done
Evaluating the coordinates              ...  done
Calculating the B-matrix                .... done
Calculating the G-matrix                .... done
The number of degrees of freedom        ....    3

    -----------------------------------------------------------------
                    Redundant Internal Coordinates


    -----------------------------------------------------------------
         Definition                    Initial Value    Approx d2E/dq
    -----------------------------------------------------------------
      1. B(H   1,O   0)                  0.9500         0.539413   
      2. B(H   2,O   0)                  0.9500         0.539411   
      3. A(H   1,O   0,H   2)          109.4712         0.325738   
    -----------------------------------------------------------------

Number of atoms                         .... 3
Number of degrees of freedom            .... 3


         *************************************************************
         *                GEOMETRY OPTIMIZATION CYCLE   1            *
         *************************************************************
---------------------------------
CARTESIAN COORDINATES (ANGSTROEM)
---------------------------------
  O      5.736637    3.296256    2.732843
  H      4.932128    3.398823    2.238126
  H      5.754947    3.927980    3.442132

----------------------------
CARTESIAN COORDINATES (A.U.)
----------------------------
  NO LB      ZA    FRAG     MASS         X           Y           Z
   0 O     8.0000    0    15.999   10.840673    6.229021    5.164325
   1 H     1.0000    0     1.008    9.320371    6.422845    4.229445
   2 H     1.0000    0     1.008   10.875274    7.422806    6.504687

--------------------------------
INTERNAL COORDINATES (ANGSTROEM)
--------------------------------
 O      0   0   0     0.000000000000     0.00000000     0.00000000
 H      1   0   0     0.949999805610     0.00000000     0.00000000
 H      1   2   0     0.950000712524   109.47124441     0.00000000

---------------------------
INTERNAL COORDINATES (A.U.)
---------------------------
 O      0   0   0     0.000000000000     0.00000000     0.00000000
 H      1   0   0     1.795239459881     0.00000000     0.00000000
 H      1   2   0     1.795241173701   109.47124441     0.00000000

---------------------
BASIS SET INFORMATION
---------------------
There are 2 groups of distinct atoms

 Group   1 Type O   : 16s9p4d2f1g contracted to 8s5p4d2f1g pattern {82111111/51111/1111/11/1}
 Group   2 Type H   : 7s4p2d1f contracted to 4s4p2d1f pattern {4111/1111/11/1}

Atom   0O    basis set group =>   1
Atom   1H    basis set group =>   2
Atom   2H    basis set group =>   2

-------------------------
BASIS SET IN INPUT FORMAT
-------------------------

 # Basis set for element : H 
 NewGTO H 
 S 4 
   1     190.6916900000      0.0053426372
   2      28.6055320000      0.0412523382
   3       6.5095943000      0.2109935257
   4       1.8412455000      0.8121285458
 S 1 
   1       0.5985372500      1.0000000000
 S 1 
   1       0.2139762400      1.0000000000
 S 1 
   1       0.0803162860      1.0000000000
 P 1 
   1       2.2920000000      1.0000000000
 P 1 
   1       0.8380000000      1.0000000000
 P 1 
   1       0.2920000000      1.0000000000
 D 1 
   1       2.0620000000      1.0000000000
 D 1 
   1       0.6620000000      1.0000000000
 F 1 
   1       1.3970000000      1.0000000000
 P 1 
   1       0.0840631992      1.0000000000
  end;

 # Basis set for element : O 
 NewGTO O 
 S 8 
   1  116506.4690800000      0.0000719877
   2   17504.3497240000      0.0005571488
   3    3993.4513230000      0.0029130031
   4    1133.0063186000      0.0121720511
   5     369.9956959400      0.0430037618
   6     133.6207434900      0.1296476240
   7      52.0356436490      0.3196960856
   8      21.4619393130      0.5893145880
 S 2 
   1      89.8350512520      0.0948480528
   2      26.4280108440      0.9253637879
 S 1 
   1       9.2822824649      1.0000000000
 S 1 
   1       4.0947728533      1.0000000000
 S 1 
   1       1.3255349078      1.0000000000
 S 1 
   1       0.5187723079      1.0000000000
 S 1 
   1       0.1977267645      1.0000000000
 P 5 
   1     191.1525581000      0.0025359574
   2      45.2333567390      0.0202338243
   3      14.3534659220      0.0945180200
   4       5.2422371832      0.3091543280
   5       2.0792418599      0.6846894953
 P 1 
   1       0.8428237142      1.0000000000
 P 1 
   1       0.3361769489      1.0000000000
 P 1 
   1       0.1286399797      1.0000000000
 D 1 
   1       3.7750000000      1.0000000000
 D 1 
   1       1.3000000000      1.0000000000
 D 1 
   1       0.4440000000      1.0000000000
 F 1 
   1       2.6660000000      1.0000000000
 F 1 
   1       0.8590000000      1.0000000000
 G 1 
   1       1.8460000000      1.0000000000
 S 1 
   1       0.0696385351      1.0000000000
 P 1 
   1       0.0435981628      1.0000000000
 D 1 
   1       0.1254637869      1.0000000000
  end;

---------------------------------
AUXILIARY/J BASIS SET INFORMATION
---------------------------------
There are 2 groups of distinct atoms

 Group   1 Type O   : 12s5p4d2f1g contracted to 6s4p3d1f1g pattern {711111/2111/211/2/1}
 Group   2 Type H   : 5s2p1d contracted to 3s1p1d pattern {311/2/1}

Atom   0O    basis set group =>   1
Atom   1H    basis set group =>   2
Atom   2H    basis set group =>   2

-------------------------------------
AUXILIARY/J BASIS SET IN INPUT FORMAT
-------------------------------------

 # Auxiliary/J basis set for element : H 
 NewAuxJGTO H 
 S 3 
   1      15.6752927000      0.1007184237
   2       3.6063578000      0.3404257499
   3       1.2080016000      0.6491996172
 S 1 
   1       0.4726794000      1.0000000000
 S 1 
   1       0.2018100000      1.0000000000
 P 2 
   1       2.0281365000      0.5596620919
   2       0.5358730000      0.5596620919
 D 1 
   1       2.2165124000      1.0000000000
  end;

 # Auxiliary/J basis set for element : O 
 NewAuxJGTO O 
 S 7 
   1    2876.8216605000      0.0168151159
   2    1004.7443032000      0.0340137548
   3     369.7579954000      0.1194951309
   4     142.9442404000      0.2664627624
   5      57.8366425000      0.4202764046
   6      24.3864983000      0.2765077335
   7      10.6622662000      0.0057008815
 S 1 
   1       4.8070437000     -1.0000000000
 S 1 
   1       2.2210770000      1.0000000000
 S 1 
   1       1.0447795000      1.0000000000
 S 1 
   1       0.4968425000      1.0000000000
 S 1 
   1       0.2371384000      1.0000000000
 P 2 
   1      64.2613382000     -0.2731534179
   2      16.3006076000     -0.8168011598
 P 1 
   1       4.3550542000      1.0000000000
 P 1 
   1       1.2019554000      1.0000000000
 P 1 
   1       0.3354196000      1.0000000000
 D 2 
   1       9.2146611000     -0.4661230638
   2       2.8435251000     -0.6600908911
 D 1 
   1       0.9955759000     -1.0000000000
 D 1 
   1       0.3649441000     -1.0000000000
 F 2 
   1       2.6420115000      0.5931563945
   2       0.7345613000      0.5931563945
 G 1 
   1       1.3931000000     -1.0000000000
  end;



           ************************************************************
           *        Program running with 16 parallel MPI-processes    *
           *              working on a common directory               *
           ************************************************************
------------------------------------------------------------------------------
                             ORCA STARTUP CALCULATIONS
                           -- RI-GTO INTEGRALS CHOSEN --
------------------------------------------------------------------------------
------------------------------------------------------------------------------
                   ___                                                        
                  /   \      - P O W E R E D   B Y -                         
                 /     \                                                     
                 |  |  |   _    _      __       _____    __    __             
                 |  |  |  | |  | |    /  \     |  _  \  |  |  /  |          
                  \  \/   | |  | |   /    \    | | | |  |  | /  /          
                 / \  \   | |__| |  /  /\  \   | |_| |  |  |/  /          
                |  |  |   |  __  | /  /__\  \  |    /   |      \           
                |  |  |   | |  | | |   __   |  |    \   |  |\   \          
                \     /   | |  | | |  |  |  |  | |\  \  |  | \   \       
                 \___/    |_|  |_| |__|  |__|  |_| \__\ |__|  \__/        
                                                                              
                      - O R C A' S   B I G   F R I E N D -                    
                                      &                                       
                       - I N T E G R A L  F E E D E R -                       
                                                                              
 v1 FN, 2020, v2 2021, v3 2022-2024                                           
------------------------------------------------------------------------------


----------------------
SHARK INTEGRAL PACKAGE
----------------------

Number of atoms                             ...      3
Number of basis functions                   ...    132
Number of shells                            ...     42
Maximum angular momentum                    ...      4
Integral batch strategy                     ... SHARK/LIBINT Hybrid
RI-J (if used) integral strategy            ... SPLIT-RIJ (Revised 2003 algorithm where possible)
Printlevel                                  ...      1
Contraction scheme used                     ... SEGMENTED contraction
Prescreening option                         ... SCHWARTZ
   Thresh                                   ... 1.000e-12
   Tcut                                     ... 1.000e-14
   Tpresel                                  ... 1.000e-14 
Coulomb Range Separation                    ... NOT USED
Exchange Range Separation                   ... Long Range
   Mu parameter                             ... 3.000e-01
   Scaling (regular/separated)              ... 1.500e-01 8.500e-01
Robust (split-)RI terms used:
  metric    (central integrals)             ... YES
  density   (r.h.s.  integrals)             ... YES
  potential (l.h.s.  integrals)             ... YES
Multipole approximations                    ... NOT USED
Finite Nucleus Model                        ... NOT USED
CABS basis                                  ... NOT available
Auxiliary Coulomb fitting basis             ... AVAILABLE
   # of basis functions in Aux-J            ...     71
   # of shells in Aux-J                     ...     25
   Maximum angular momentum in Aux-J        ...      4
Auxiliary J/K fitting basis                 ... NOT available
Auxiliary Correlation fitting basis         ... NOT available
Auxiliary 'external' fitting basis          ... NOT available

Checking pre-screening integrals            ... done (  0.0 sec) Dimension = 42
   => SHARK Basis and OBASIS are compatible. Storing Pre-screening
Shell pair information
Shell pair cut-off parameter TPreSel        ...   1.0e-14
Total number of shell pairs                 ...       903
Shell pairs after pre-screening             ...       903
Total number of primitive shell pairs       ...      1881
Primitive shell pairs kept                  ...      1823
          la=0 lb=0:    136 shell pairs
          la=1 lb=0:    208 shell pairs
          la=1 lb=1:     91 shell pairs
          la=2 lb=0:    128 shell pairs
          la=2 lb=1:    104 shell pairs
          la=2 lb=2:     36 shell pairs
          la=3 lb=0:     64 shell pairs
          la=3 lb=1:     52 shell pairs
          la=3 lb=2:     32 shell pairs
          la=3 lb=3:     10 shell pairs
          la=4 lb=0:     16 shell pairs
          la=4 lb=1:     13 shell pairs
          la=4 lb=2:      8 shell pairs
          la=4 lb=3:      4 shell pairs
          la=4 lb=4:      1 shell pairs

Checking whether 4 symmetric matrices of dimension 132 fit in memory
:Max Core in MB      =   4096.00
 MB in use           =      4.30
 MB left             =   4091.70
 MB needed           =      0.27
 Data fit in memory  = YES
Calculating RI/J V-Matrix + Cholesky decomp.... done (  0.0 sec)
Calculating Nuclear repulsion               ... done (  0.0 sec) ENN=      9.253564656764 Eh

Diagonalization of the overlap matrix:
Smallest eigenvalue                        ... 1.222e-04
Time for diagonalization                   ...    0.004 sec
Threshold for overlap eigenvalues          ... 1.000e-07
Number of eigenvalues below threshold      ... 0
Time for construction of square roots      ...    0.001 sec
Total time needed                          ...    0.005 sec

-------------------
DFT GRID GENERATION
-------------------

General Integration Accuracy     IntAcc      ... 4.959
Radial Grid Type                 RadialGrid  ... OptM3 with GC (2021)
Angular Grid (max. ang.)         AngularGrid ... 6 (Lebedev-590)
Angular grid pruning method      GridPruning ... 4 (adaptive)
Weight generation scheme         WeightScheme... mBecke (2022)
Basis function cutoff            BFCut       ... 1.0000e-12
Integration weight cutoff        WCut        ... 1.0000e-14
Partially contracted basis set               ... off
Rotationally invariant grid construction     ... off
Angular grids for H and He will be reduced by one unit
Diffuse basis detected: some atoms will have their outermost
                        angular grid increased by 1.

Total number of grid points                  ...    35310
Total number of batches                      ...      553
Average number of points per batch           ...       63
Average number of grid points per atom       ...    11770

------------------
NL GRID GENERATION
------------------

General Integration Accuracy     IntAcc      ... 4.159
Radial Grid Type                 RadialGrid  ... OptM3 with GC (2021)
Angular Grid (max. ang.)         AngularGrid ... 3 (Lebedev-194)
Angular grid pruning method      GridPruning ... 4 (adaptive)
Weight generation scheme         WeightScheme... mBecke (2022)
Basis function cutoff            BFCut       ... 1.0000e-10
Integration weight cutoff        WCut        ... 1.0000e-14
Partially contracted basis set               ... off
Rotationally invariant grid construction     ... off
Angular grids for H and He will be reduced by one unit
Diffuse basis detected: some atoms will have their outermost
                        angular grid increased by 1.

Total number of grid points                  ...     7280
Total number of batches                      ...      115
Average number of points per batch           ...       63
Average number of grid points per atom       ...     2427

--------------------
COSX GRID GENERATION
--------------------

GRIDX 1
-------
General Integration Accuracy     IntAcc      ... 4.020
Radial Grid Type                 RadialGrid  ... OptM3 with GC (2021)
Angular Grid (max. ang.)         AngularGrid ... 2 (Lebedev-110)
Angular grid pruning method      GridPruning ... 4 (adaptive)
Weight generation scheme         WeightScheme... mBecke (2022)
Basis function cutoff            BFCut       ... 1.0000e-12
Integration weight cutoff        WCut        ... 1.0000e-14
Partially contracted basis set               ... on
Rotationally invariant grid construction     ... off
Angular grids for H and He will be reduced by one unit
Diffuse basis detected: some atoms will have their outermost
                        angular grid increased by 1.

Total number of grid points                  ...     4169
Total number of batches                      ...       34
Average number of points per batch           ...      122
Average number of grid points per atom       ...     1390
UseSFitting                                  ... on

GRIDX 2
-------
General Integration Accuracy     IntAcc      ... 4.338
Radial Grid Type                 RadialGrid  ... OptM3 with GC (2021)
Angular Grid (max. ang.)         AngularGrid ... 3 (Lebedev-194)
Angular grid pruning method      GridPruning ... 4 (adaptive)
Weight generation scheme         WeightScheme... mBecke (2022)
Basis function cutoff            BFCut       ... 1.0000e-12
Integration weight cutoff        WCut        ... 1.0000e-14
Partially contracted basis set               ... on
Rotationally invariant grid construction     ... off
Angular grids for H and He will be reduced by one unit
Diffuse basis detected: some atoms will have their outermost
                        angular grid increased by 1.

Total number of grid points                  ...     9565
Total number of batches                      ...       76
Average number of points per batch           ...      125
Average number of grid points per atom       ...     3188
UseSFitting                                  ... on

GRIDX 3
-------
General Integration Accuracy     IntAcc      ... 4.871
Radial Grid Type                 RadialGrid  ... OptM3 with GC (2021)
Angular Grid (max. ang.)         AngularGrid ... 4 (Lebedev-302)
Angular grid pruning method      GridPruning ... 4 (adaptive)
Weight generation scheme         WeightScheme... mBecke (2022)
Basis function cutoff            BFCut       ... 1.0000e-12
Integration weight cutoff        WCut        ... 1.0000e-14
Partially contracted basis set               ... on
Rotationally invariant grid construction     ... off
Angular grids for H and He will be reduced by one unit
Diffuse basis detected: some atoms will have their outermost
                        angular grid increased by 1.

Total number of grid points                  ...    18718
Total number of batches                      ...      147
Average number of points per batch           ...      127
Average number of grid points per atom       ...     6239
UseSFitting                                  ... on
Grids setup in   0.4 sec
Initializing property integral containers    ... done (  0.0 sec)

SHARK setup successfully completed in   0.5 seconds

Maximum memory used throughout the entire STARTUP-calculation: 26.0 MB


           ************************************************************
           *        Program running with 16 parallel MPI-processes    *
           *              working on a common directory               *
           ************************************************************
-------------------------------------------------------------------------------
                                 ORCA GUESS
                   Start orbitals & Density for SCF / CASSCF
-------------------------------------------------------------------------------

------------
SCF SETTINGS
------------
Hamiltonian:
 Density Functional     Method          .... DFT(GTOs)
  Functional kind                       .... Exchange-Correlation
  Functional name                       .... wB97M-V exchange-correlation functional
  Functional family                     .... Hybrid MGGA
  Functional refs                              
    [ 0] N. Mardirossian and M. Head-Gordon.,  J. Chem. Phys. 144, 214110 (2016), doi: 10.1063/1.4952647
  Fraction of HF Exchange (short range) .... 0.1500
  Fraction of HF Exchange ( int64 range )  .... 1.0000
  Range separation parameter mu         .... 0.3000
  Functional external parameters        .... 17
    Parameter  0 _cx00      =  8.500000e-01 : u^00 coefficient for exchange
    Parameter  1 _cx01      =  1.007000e+00 : u^01 coefficient for exchange
    Parameter  2 _cx10      =  2.590000e-01 : u^10 coefficient for exchange
    Parameter  3 _css00     =  4.430000e-01 : u^00 coefficient for same-spin correlation
    Parameter  4 _css04     = -1.437000e+00 : u^04 coefficient for same-spin correlation
    Parameter  5 _css10     = -4.535000e+00 : u^10 coefficient for same-spin correlation
    Parameter  6 _css20     = -3.390000e+00 : u^20 coefficient for same-spin correlation
    Parameter  7 _css43     =  4.278000e+00 : u^43 coefficient for same-spin correlation
    Parameter  8 _cos00     =  1.000000e+00 : u^00 coefficient for opposite-spin correlation
    Parameter  9 _cos10     =  1.358000e+00 : u^10 coefficient for opposite-spin correlation
    Parameter 10 _cos20     =  2.924000e+00 : u^20 coefficient for opposite-spin correlation
    Parameter 11 _cos21     = -8.812000e+00 : u^21 coefficient for opposite-spin correlation
    Parameter 12 _cos60     = -1.390000e+00 : u^60 coefficient for opposite-spin correlation
    Parameter 13 _cos61     =  9.142000e+00 : u^61 coefficient for opposite-spin correlation
    Parameter 14 _alpha     =  1.000000e+00 : fraction of HF exchange
    Parameter 15 _beta      = -8.500000e-01 : fraction of short-range exchange
    Parameter 16 _omega     =  3.000000e-01 : range-separation constant
 Long-range corrected/Screened/Range-Separated Hybrid DFT is turned on
   Amount of maximum screened exact exchange              ....  0.850000
   Range separation parameter mu (erf(mu*r12)/r12)        ....  0.300000
   NL short-range parameter             ....  6.000000
   NL long-range parameter              ....  0.010000
 RI-approximation to the Coulomb term is turned on
   Number of AuxJ basis functions       .... 71
   RIJ-COSX (HFX calculated with COS-X)).... on


General Settings:
 Integral files         IntName         .... water
 Hartree-Fock type      HFTyp           .... RHF
 Total Charge           Charge          ....    0
 Multiplicity           Mult            ....    1
 Number of Electrons    NEL             ....   10
 Basis Dimension        Dim             ....  132
 Nuclear Repulsion      ENuc            ....      9.2535646568 Eh

Convergence Acceleration:
 AO-DIIS                CNVDIIS         .... on
   Start iteration      DIISMaxIt       ....    12
   Startup error        DIISStart       ....  0.200000
   # of expansion vecs  DIISMaxEq       ....     5
   Bias factor          DIISBfac        ....   1.050
   Max. coefficient     DIISMaxC        ....  10.000
 MO-DIIS                CNVKDIIS        .... off
 Trust-Rad. Augm. Hess. CNVTRAH         .... off
 SOSCF                 CNVSOSCF           .... on
   Start iteration     SOSCFMaxIt         ....   150
   Startup grad/error  SOSCFStart         ....  0.003300
   Hessian update      SOSCFHessUp        .... L-BFGS
   Autom. constraints  SOSCFAutoConstrain .... off
 Level Shifting         CNVShift        .... on
   Level shift para.    LevelShift      ....    0.2500
   Turn off err/grad.   ShiftErr        ....    0.0010
 Zerner damping         CNVZerner       .... off
 Static damping         CNVDamp         .... on
   Fraction old density DampFac         ....    0.7000
   Max. Damping (<1)    DampMax         ....    0.9800
   Min. Damping (>=0)   DampMin         ....    0.0000
   Turn off err/grad.   DampErr         ....    0.1000

SCF Procedure:
 Maximum # iterations   MaxIter         ....   125
 SCF integral mode      SCFMode         .... Direct
   Integral package                     .... SHARK and LIBINT hybrid scheme
 Reset frequency        DirectResetFreq ....    20
 Integral Threshold     Thresh          ....  1.000e-12 Eh
 Primitive CutOff       TCut            ....  1.000e-14 Eh

Convergence Tolerance:
 Convergence Check Mode ConvCheckMode   .... Total+1el-Energy
 Convergence forced     ConvForced      .... 0
 Energy Change          TolE            ....  1.000e-09 Eh
 1-El. energy change                    ....  1.000e-06 Eh
 Orbital Gradient       TolG            ....  2.000e-06
 Orbital Rotation angle TolX            ....  2.000e-06
 DIIS Error             TolErr          ....  1.000e-08

------------------------------
INITIAL GUESS: MODEL POTENTIAL
------------------------------
Loading Hartree-Fock densities                     ... done
Calculating cut-offs                               ... done
Initializing the effective Hamiltonian             ... done
Setting up the integral package (SHARK)            ... done
Starting the Coulomb interaction                   ... done (   0.0 sec)
Making the grid                                    ... done (   0.0 sec)
Mapping shells                                     ... done
Starting the XC term evaluation                    ... done (   0.0 sec)
  promolecular density results
     # of electrons  =      9.999339141
     EX              =     -8.734362198
     EC              =     -0.316398888
     EX+EC           =     -9.050761086
Transforming the Hamiltonian                       ... done (   0.0 sec)
Diagonalizing the Hamiltonian                      ... done (   0.0 sec)
Back transforming the eigenvectors                 ... done (   0.0 sec)
Now organizing SCF variables                       ... done
                      ------------------
                      INITIAL GUESS DONE (   0.0 sec)
                      ------------------
             **** ENERGY FILE WAS UPDATED (water.en.tmp) ****
Finished Guess after   0.2 sec
Maximum memory used throughout the entire GUESS-calculation: 9.9 MB


           ************************************************************
           *        Program running with 16 parallel MPI-processes    *
           *              working on a common directory               *
           ************************************************************

-------------------------------------------------------------------------------------------
                                      ORCA LEAN-SCF
                              memory conserving SCF solver
-------------------------------------------------------------------------------------------

----------------------------------------D-I-I-S--------------------------------------------
Iteration    Energy (Eh)           Delta-E    RMSDP     MaxDP     DIISErr   Damp  Time(sec)
-------------------------------------------------------------------------------------------
               ***  Starting incremental Fock matrix formation  ***
    1    -76.3397429190202814     0.00e+00  4.25e-03  2.98e-02  3.54e-01  0.700   0.3
    2    -76.3851969552797101    -4.55e-02  2.83e-03  2.33e-02  1.66e-01  0.700   0.3
                               ***Turning on AO-DIIS***
    3    -76.4039028924425310    -1.87e-02  1.19e-03  1.30e-02  8.99e-02  0.700   0.2
    4    -76.4150351532332195    -1.11e-02  2.32e-03  2.52e-02  6.36e-02  0.000   0.2
                              *** Initializing SOSCF ***
---------------------------------------S-O-S-C-F--------------------------------------
Iteration    Energy (Eh)           Delta-E    RMSDP     MaxDP     MaxGrad    Time(sec)
--------------------------------------------------------------------------------------
    5    -76.4395913878967974    -2.46e-02  1.59e-04  1.09e-03  2.78e-03     0.3
               *** Restarting incremental Fock matrix formation ***
    6    -76.4396066178257172    -1.52e-05  7.94e-05  5.80e-04  2.47e-04     0.3
    7    -76.4396075963303900    -9.79e-07  4.12e-05  2.83e-04  2.21e-04     0.3
    8    -76.4396080416837975    -4.45e-07  1.67e-05  1.56e-04  4.64e-05     0.3
    9    -76.4396080527000095    -1.10e-08  3.62e-06  2.63e-05  5.93e-06     0.3
   10    -76.4396080531413702    -4.41e-10  5.37e-07  3.71e-06  9.77e-07     0.3
                 **** Energy Check signals convergence ****

               *****************************************************
               *                     SUCCESS                       *
               *           SCF CONVERGED AFTER  10 CYCLES          *
               *****************************************************

Recomputing exchange energy using gridx3       ... done (    0.194 sec)
Old exchange energy                            :     -2.687899486 Eh
New exchange energy                            :     -2.687899001 Eh
Exchange energy change after final integration :      0.000000484 Eh
Total energy after final integration           :    -76.439607569 Eh
             **** ENERGY FILE WAS UPDATED (water.en.tmp) ****

----------------
TOTAL SCF ENERGY
----------------

Total Energy       :        -76.43960756913856 Eh           -2080.02747 eV

Components:
Nuclear Repulsion  :          9.25356465676380 Eh             251.80230 eV
Electronic Energy  :        -85.73574689740954 Eh           -2332.98828 eV
One Electron Energy:       -123.12354696751308 Eh           -3350.36204 eV
Two Electron Energy:         37.38780007010354 Eh            1017.37376 eV

Virial components:
Potential Energy   :       -152.68573272569830 Eh           -4154.79001 eV
Kinetic Energy     :         76.24612515655974 Eh            2074.76254 eV
Virial Ratio       :          2.00253760321828

DFT components:
N(Alpha)           :        4.999994355083 electrons
N(Beta)            :        4.999994355083 electrons
N(Total)           :        9.999988710167 electrons
NL Energy, E(C,NL) :        0.042574187490 Eh       
E(XC)              :       -6.622940241472 Eh       

---------------
SCF CONVERGENCE
---------------

  Last Energy change         ...    4.4136e-10  Tolerance :   1.0000e-09
  Last MAX-Density change    ...    3.7078e-06  Tolerance :   1.0000e-08
  Last RMS-Density change    ...    5.3666e-07  Tolerance :   1.0000e-09
  Last DIIS Error            ...    2.7835e-03  Tolerance :   1.0000e-08
  Last Orbital Gradient      ...    9.7707e-07  Tolerance :   2.0000e-06
  Last Orbital Rotation      ...    2.7258e-06  Tolerance :   2.0000e-06


----------------
ORBITAL ENERGIES
----------------

  NO   OCC          E(Eh)            E(eV) 
   0   2.0000     -19.332754      -526.0710 
   1   2.0000      -1.144766       -31.1507 
   2   2.0000      -0.655039       -17.8245 
   3   2.0000      -0.495949       -13.4955 
   4   2.0000      -0.427940       -11.6449 
   5   0.0000       0.036907         1.0043 
   6   0.0000       0.060589         1.6487 
   7   0.0000       0.083256         2.2655 
   8   0.0000       0.083773         2.2796 
   9   0.0000       0.164597         4.4789 
  10   0.0000       0.173912         4.7324 
  11   0.0000       0.198083         5.3901 
  12   0.0000       0.218352         5.9417 
  13   0.0000       0.225956         6.1486 
  14   0.0000       0.256356         6.9758 
  15   0.0000       0.291275         7.9260 
  16   0.0000       0.304989         8.2992 
  17   0.0000       0.396096        10.7783 
  18   0.0000       0.398021        10.8307 
  19   0.0000       0.426096        11.5947 
  20   0.0000       0.475900        12.9499 
  21   0.0000       0.493199        13.4206 
  22   0.0000       0.496097        13.4995 
  23   0.0000       0.556781        15.1508 
  24   0.0000       0.576052        15.6752 
  25   0.0000       0.589060        16.0291 
  26   0.0000       0.687842        18.7171 
  27   0.0000       0.814686        22.1687 
  28   0.0000       0.855468        23.2785 
  29   0.0000       0.897960        24.4347 
  30   0.0000       0.976439        26.5703 
  31   0.0000       1.030820        28.0500 
  32   0.0000       1.094049        29.7706 
  33   0.0000       1.152013        31.3479 
  34   0.0000       1.176314        32.0091 
  35   0.0000       1.370111        37.2826 
  36   0.0000       1.418897        38.6102 
  37   0.0000       1.481729        40.3199 
  38   0.0000       1.495150        40.6851 
  39   0.0000       1.567656        42.6581 
  40   0.0000       1.629511        44.3413 
  41   0.0000       1.653200        44.9859 
  42   0.0000       1.980526        53.8929 
  43   0.0000       1.989515        54.1375 
  44   0.0000       2.037475        55.4425 
  45   0.0000       2.096893        57.0594 
  46   0.0000       2.283504        62.1373 
  47   0.0000       2.367694        64.4282 
  48   0.0000       2.471436        67.2512 
  49   0.0000       2.479090        67.4595 
  50   0.0000       2.502162        68.0873 
  51   0.0000       2.597918        70.6930 
  52   0.0000       2.627016        71.4847 
  53   0.0000       2.726667        74.1964 
  54   0.0000       2.729657        74.2778 
  55   0.0000       2.773523        75.4714 
  56   0.0000       3.024199        82.2926 
  57   0.0000       3.094450        84.2043 
  58   0.0000       3.229686        87.8842 
  59   0.0000       3.305963        89.9598 
  60   0.0000       3.502638        95.3116 
  61   0.0000       3.784337       102.9771 
  62   0.0000       3.929414       106.9248 
  63   0.0000       3.944490       107.3350 
  64   0.0000       3.967245       107.9542 
  65   0.0000       4.180672       113.7619 
  66   0.0000       4.186079       113.9090 
  67   0.0000       4.326585       117.7324 
  68   0.0000       4.341738       118.1447 
  69   0.0000       4.477899       121.8498 
  70   0.0000       4.657467       126.7361 
  71   0.0000       4.907007       133.5265 
  72   0.0000       4.929293       134.1329 
  73   0.0000       5.367061       146.0451 
  74   0.0000       5.472404       148.9117 
  75   0.0000       5.484560       149.2425 
  76   0.0000       5.826170       158.5381 
  77   0.0000       5.973450       162.5459 
  78   0.0000       6.031950       164.1377 
  79   0.0000       6.056867       164.8157 
  80   0.0000       6.387616       173.8159 
  81   0.0000       6.673592       181.5977 
  82   0.0000       6.770481       184.2342 
  83   0.0000       7.177556       195.3112 
  84   0.0000       7.202520       195.9905 
  85   0.0000       7.296618       198.5511 
  86   0.0000       7.310932       198.9406 
  87   0.0000       7.361439       200.3149 
  88   0.0000       7.396856       201.2787 
  89   0.0000       7.471561       203.3115 
  90   0.0000       7.477151       203.4636 
  91   0.0000       7.682292       209.0458 
  92   0.0000       7.724053       210.1822 
  93   0.0000       7.814161       212.6341 
  94   0.0000       7.828377       213.0210 
  95   0.0000       7.853256       213.6980 
  96   0.0000       7.931605       215.8299 
  97   0.0000       8.006242       217.8609 
  98   0.0000       8.083236       219.9560 
  99   0.0000       8.381629       228.0757 
 100   0.0000       8.641060       235.1352 
 101   0.0000       8.722123       237.3410 
 102   0.0000       8.864054       241.2032 
 103   0.0000       8.866260       241.2632 
 104   0.0000       9.060071       246.5371 
 105   0.0000       9.167603       249.4632 
 106   0.0000       9.810498       266.9572 
 107   0.0000       9.875565       268.7278 
 108   0.0000      10.299933       280.2754 
 109   0.0000      10.517649       286.1998 
 110   0.0000      10.799373       293.8659 
 111   0.0000      10.966387       298.4106 
 112   0.0000      11.020926       299.8946 
 113   0.0000      11.185263       304.3665 
 114   0.0000      11.238565       305.8169 
 115   0.0000      11.376318       309.5653 
 116   0.0000      11.524103       313.5868 
 117   0.0000      11.904296       323.9324 
 118   0.0000      11.947035       325.0954 
 119   0.0000      11.983816       326.0962 
 120   0.0000      12.080731       328.7334 
 121   0.0000      12.328496       335.4754 
 122   0.0000      12.953937       352.4946 
 123   0.0000      13.675106       372.1186 
 124   0.0000      13.712768       373.1434 
 125   0.0000      13.795993       375.4080 
 126   0.0000      14.262676       388.1072 
 127   0.0000      14.612140       397.6165 
 128   0.0000      16.763794       456.1660 
 129   0.0000      16.985350       462.1949 
 130   0.0000      48.685253      1324.7931 
 131   0.0000     256.081008      6968.3185 
------------------
MOLECULAR ORBITALS (RHF, ROHF)
------------------
                      0         1         2         3         4         5   
                 -19.33275  -1.14477  -0.65504  -0.49595  -0.42794   0.03691
                   2.00000   2.00000   2.00000   2.00000   2.00000   0.00000
                  --------  --------  --------  --------  --------  --------
  0O   1s         0.559598  0.116396 -0.000000 -0.040542  0.000000  0.023802
  0O   2s         0.003118  0.018893 -0.000000 -0.006761  0.000000  0.003067
  0O   3s         0.358747  0.138716 -0.000000 -0.049771 -0.000000  0.032556
  0O   4s         0.168361  0.073725 -0.000000 -0.025488  0.000001  0.005777
  0O   5s         0.015338 -0.295189  0.000000  0.108407 -0.000001 -0.045108
  0O   6s        -0.009385 -0.456535  0.000004  0.203991  0.000001 -0.207170
  0O   7s        -0.003111 -0.203163  0.000009  0.228903 -0.000001  1.869701
  0O   1pz        0.000366 -0.011216  0.221909 -0.061197 -0.210312 -0.014134
  0O   1px       -0.001342  0.041095  0.151654  0.224227  0.158845  0.051789
  0O   1py        0.001253 -0.038382  0.097528 -0.209422  0.231531 -0.048369
  0O   2pz       -0.000471 -0.011798  0.203637 -0.056361 -0.196628 -0.010820
  0O   2px        0.001729  0.043231  0.139166  0.206509  0.148507  0.039644
  0O   2py       -0.001614 -0.040376  0.089498 -0.192874  0.216465 -0.037027
  0O   3pz       -0.000519 -0.007116  0.153065 -0.049854 -0.188849  0.026085
  0O   3px        0.001903  0.026070  0.104605  0.182663  0.142631 -0.095579
  0O   3py       -0.001777 -0.024348  0.067273 -0.170600  0.207900  0.089269
  0O   4pz       -0.000057 -0.001784  0.029861 -0.021478 -0.104141  0.214170
  0O   4px        0.000208  0.006536  0.020407  0.078715  0.078656 -0.784735
  0O   4py       -0.000194 -0.006105  0.013126 -0.073514  0.114648  0.732921
  0O   1dz2       0.000006 -0.000133  0.001186  0.000532 -0.000367 -0.000015
  0O   1dxz       0.000078 -0.000691 -0.002041 -0.000436  0.000936  0.000151
  0O   1dyz       0.000098 -0.000769  0.002645 -0.001256 -0.000492  0.000224
  0O   1dx2y2     0.000029 -0.000228 -0.002745 -0.000356 -0.001384  0.000065
  0O   1dxy      -0.000056  0.000309  0.000499  0.001655 -0.000307 -0.000173
  0O   2dz2       0.000009 -0.000991  0.004006  0.003275 -0.001695  0.001977
  0O   2dxz      -0.000214 -0.004945 -0.006894  0.000645  0.004324  0.001270
  0O   2dyz      -0.000300 -0.005447  0.008932 -0.003237 -0.002271 -0.000763
  0O   2dx2y2    -0.000088 -0.001615 -0.009270 -0.000876 -0.006393 -0.000180
  0O   2dxy       0.000214  0.002115  0.001685  0.007189 -0.001418  0.003544
  0O   3dz2      -0.000160 -0.000146  0.003699  0.006550 -0.003034  0.010624
  0O   3dxz      -0.000837 -0.003481 -0.006364  0.003613  0.007742  0.045113
  0O   3dyz      -0.000932 -0.004529  0.008247 -0.003330 -0.004067  0.047719
  0O   3dx2y2    -0.000276 -0.001328 -0.008559 -0.000834 -0.011445  0.014191
  0O   3dxy       0.000377  0.002802  0.001556  0.012281 -0.002538 -0.015555
  0O   1f0        0.000026 -0.000257 -0.000468 -0.000125 -0.000564 -0.000182
  0O   1f+1      -0.000012  0.000108  0.000564 -0.000022 -0.000316 -0.000009
  0O   1f-1       0.000056 -0.000569  0.000893 -0.000363 -0.000222 -0.000501
  0O   1f+2      -0.000100  0.001053  0.000209  0.000855 -0.000188  0.001137
  0O   1f-2       0.000017 -0.000153  0.000174 -0.000012  0.000625 -0.000037
  0O   1f+3       0.000036 -0.000347 -0.000389 -0.000138 -0.000160 -0.000209
  0O   1f-3       0.000004 -0.000007  0.000272  0.000175 -0.000069  0.000199
  0O   2f0       -0.000149 -0.000266 -0.000843 -0.000122 -0.002506  0.002492
  0O   2f+1       0.000046 -0.000026  0.001635 -0.000383 -0.001415 -0.000867
  0O   2f-1      -0.000348 -0.000747  0.002011 -0.000770 -0.001104  0.005717
  0O   2f+2       0.000687  0.001725  0.000611  0.002495 -0.000929 -0.011036
  0O   2f-2      -0.000074 -0.000043  0.000826  0.000290  0.002966  0.001331
  0O   2f+3      -0.000193 -0.000301 -0.000676  0.000018 -0.000897  0.003282
  0O   2f-3       0.000037  0.000323  0.000308  0.001033 -0.000219 -0.000368
  0O   1g0        0.000040  0.000008  0.000063  0.000050 -0.000228 -0.000401
  0O   1g+1       0.000049  0.000039  0.000049  0.000158  0.000172 -0.000043
  0O   1g-1      -0.000017  0.000013  0.000150  0.000012 -0.000279  0.000259
  0O   1g+2       0.000048  0.000055 -0.000313  0.000175  0.000189 -0.000078
  0O   1g-2       0.000032  0.000030  0.000119  0.000137  0.000010  0.000189
  0O   1g+3       0.000059  0.000070  0.000268  0.000196  0.000216 -0.000264
  0O   1g-3      -0.000078 -0.000066  0.000093 -0.000243  0.000336  0.000198
  0O   1g+4       0.000036 -0.000008  0.000064  0.000044  0.000096 -0.000185
  0O   1g-4      -0.000024 -0.000031  0.000076 -0.000089  0.000132  0.000072
  0O   8s         0.001400 -0.027933  0.000004  0.073860 -0.000006  8.247027
  0O   5pz        0.000012 -0.000054 -0.001114 -0.001867 -0.013854  0.194136
  0O   5px       -0.000042  0.000198 -0.000762  0.006844  0.010464 -0.711337
  0O   5py        0.000039 -0.000185 -0.000489 -0.006392  0.015251  0.664353
  0O   4dz2       0.000051 -0.000355 -0.000515  0.003706 -0.001693  0.044749
  0O   4dxz       0.000055 -0.000769  0.000887  0.003429  0.004320  0.162961
  0O   4dyz       0.000010 -0.000594 -0.001148 -0.000008 -0.002269  0.164372
  0O   4dx2y2     0.000004 -0.000181  0.001191  0.000077 -0.006389  0.049061
  0O   4dxy       0.000072 -0.000148 -0.000217  0.005696 -0.001417 -0.041036
  1H   1s        -0.000085 -0.056097 -0.086847 -0.047571  0.000000  0.008556
  1H   2s         0.003250 -0.080682 -0.154911 -0.091349 -0.000002 -0.037054
  1H   3s         0.002366 -0.027672 -0.145947 -0.108547 -0.000003 -0.861950
  1H   4s        -0.000960  0.010085 -0.048407 -0.040139  0.000006 -3.907918
  1H   1pz       -0.000027 -0.004149 -0.002630 -0.003483 -0.002773 -0.001795
  1H   1px        0.000019 -0.006146 -0.006306 -0.001392  0.002094 -0.001966
  1H   1py       -0.000037  0.000448  0.001938 -0.002208  0.003053 -0.000281
  1H   2pz        0.000970 -0.005485 -0.004303 -0.009118 -0.008372 -0.014889
  1H   2px        0.001301 -0.008032 -0.013653 -0.002071  0.006322 -0.024877
  1H   2py       -0.000011  0.000528  0.005457 -0.006861  0.009216  0.003543
  1H   3pz        0.000733 -0.002676 -0.003573 -0.014124 -0.015575 -0.155044
  1H   3px        0.001019 -0.002827 -0.012134 -0.000088  0.011762 -0.215936
  1H   3py       -0.000033 -0.000491  0.005079 -0.012768  0.017145  0.007310
  1H   1dz2       0.000011  0.000091  0.000749 -0.000794 -0.001174 -0.000037
  1H   1dxz       0.000114 -0.002030 -0.001993 -0.001771 -0.000581 -0.000484
  1H   1dyz      -0.000004  0.000121  0.000612 -0.000394  0.000880  0.000081
  1H   1dx2y2     0.000074 -0.001496 -0.001989 -0.000650  0.000972 -0.000332
  1H   1dxy       0.000011  0.000252  0.001016 -0.000891  0.001102 -0.000066
  1H   2dz2       0.000081  0.000009  0.001354 -0.001933 -0.002883  0.000932
  1H   2dxz       0.000360 -0.000578 -0.002034 -0.002813 -0.001151 -0.014299
  1H   2dyz       0.000057 -0.000097  0.000782 -0.001801  0.001973  0.000358
  1H   2dx2y2     0.000187 -0.000386 -0.002432 -0.000353  0.001972 -0.010607
  1H   2dxy       0.000066  0.000123  0.001893 -0.001793  0.002545  0.002532
  1H   1f0        0.000036  0.000199  0.000642  0.000227 -0.000269  0.000293
  1H   1f+1       0.000065 -0.000125  0.000069 -0.000818 -0.000781 -0.000170
  1H   1f-1      -0.000001 -0.000017  0.000000 -0.000059  0.000146 -0.000013
  1H   1f+2      -0.000022 -0.000347 -0.000853 -0.000768  0.000029 -0.000808
  1H   1f-2       0.000056  0.000051  0.000462 -0.000341  0.000673 -0.000027
  1H   1f+3       0.000027  0.000210  0.000639  0.000307 -0.000483  0.000275
  1H   1f-3      -0.000079 -0.000076 -0.000536  0.000365 -0.000464 -0.000264
  1H   4pz       -0.000081  0.001661 -0.001519 -0.001371 -0.006026 -0.521053
  1H   4px       -0.000259  0.003413 -0.003938  0.003912  0.004553 -0.891106
  1H   4py        0.000104 -0.000832  0.001321 -0.003928  0.006635  0.138076
  2H   1s        -0.000085 -0.056098  0.086848 -0.047572 -0.000000  0.008556
  2H   2s         0.003248 -0.080681  0.154907 -0.091349  0.000002 -0.037055
  2H   3s         0.002365 -0.027671  0.145939 -0.108560  0.000003 -0.861938
  2H   4s        -0.000959  0.010086  0.048402 -0.040149  0.000001 -3.907935
  2H   1pz        0.000010  0.005672 -0.004704  0.003028 -0.002773  0.002135
  2H   1px        0.000044  0.000565  0.001294  0.003057  0.002094  0.000719
  2H   1py       -0.000021  0.004765 -0.005162  0.000653  0.003053  0.001446
  2H   2pz       -0.001263  0.007456 -0.009230  0.007205 -0.008372  0.021652
  2H   2px       -0.000226  0.000811  0.004403  0.009083  0.006323  0.000096
  2H   2py       -0.000992  0.006215 -0.011404  0.000312  0.009215  0.019602
  2H   3pz       -0.000971  0.003135 -0.008028  0.009728 -0.015575  0.205635
  2H   3px       -0.000146  0.001144  0.004202  0.016211  0.011762  0.030553
  2H   3py       -0.000782  0.002062 -0.010177 -0.002287  0.017144  0.165829
  2H   1dz2       0.000061 -0.000935  0.000712 -0.001140  0.001675 -0.000274
  2H   1dxz       0.000029 -0.000263 -0.000523 -0.001174 -0.000699 -0.000076
  2H   1dyz       0.000107 -0.002168  0.002648 -0.001166 -0.000208 -0.000448
  2H   1dx2y2    -0.000042  0.000880 -0.001395  0.000152  0.000919  0.000217
  2H   1dxy       0.000032 -0.000180 -0.000401 -0.001036 -0.000682 -0.000166
  2H   2dz2       0.000194 -0.000231  0.000446 -0.001790  0.003896 -0.006251
  2H   2dxz       0.000166 -0.000166 -0.001064 -0.003062 -0.001432 -0.001939
  2H   2dyz       0.000308 -0.000630  0.003231 -0.001479 -0.000616 -0.015655
  2H   2dx2y2    -0.000074  0.000168 -0.001734 -0.000688  0.001846  0.006015
  2H   2dxy       0.000113  0.000022 -0.001136 -0.001732 -0.001698 -0.000488
  2H   1f0       -0.000041 -0.000039  0.000276  0.000198 -0.000877 -0.000074
  2H   1f+1      -0.000039  0.000052  0.000157  0.000486  0.000146  0.000203
  2H   1f-1       0.000017  0.000365 -0.000885  0.000823 -0.000540  0.000643
  2H   1f+2      -0.000063 -0.000282  0.000949 -0.000273 -0.000362 -0.000670
  2H   1f-2      -0.000078  0.000049  0.000299  0.000721  0.000501  0.000053
  2H   1f+3      -0.000044  0.000009  0.000173  0.000330  0.000254 -0.000032
  2H   1f-3       0.000024  0.000095 -0.000389  0.000009  0.000279 -0.000030
  2H   4pz        0.000175 -0.002709 -0.002852 -0.000858 -0.006026  0.767196
  2H   4px       -0.000084  0.000427  0.000950  0.004260  0.004553 -0.010725
  2H   4py        0.000217 -0.002753 -0.003243 -0.003702  0.006635  0.704232
                      6         7         8         9        10        11   
                   0.06059   0.08326   0.08377   0.16460   0.17391   0.19808
                   0.00000   0.00000   0.00000   0.00000   0.00000   0.00000
                  --------  --------  --------  --------  --------  --------
  0O   1s        -0.000000  0.017639  0.000002  0.000000 -0.005628 -0.000000
  0O   2s        -0.000000  0.002967  0.000000  0.000000 -0.001642  0.000000
  0O   3s        -0.000000  0.021904  0.000003  0.000000 -0.004623 -0.000000
  0O   4s        -0.000000  0.011651  0.000002  0.000000 -0.011665  0.000000
  0O   5s         0.000000 -0.071148 -0.000010 -0.000000  0.059133  0.000001
  0O   6s         0.000004  0.005004  0.000007 -0.000003 -0.114741 -0.000011
  0O   7s         0.000003  0.642431  0.000083 -0.000044  0.652170 -0.000100
  0O   1pz        0.052704  0.004975 -0.040626 -0.065399  0.004582 -0.000001
  0O   1px        0.036017 -0.018214  0.030684 -0.044693 -0.016796  0.000002
  0O   1py        0.023162  0.017002  0.044730 -0.028742  0.015685 -0.000002
  0O   2pz        0.008329  0.009798 -0.051820 -0.079504  0.001513 -0.000001
  0O   2px        0.005690 -0.035884  0.039134 -0.054332 -0.005550  0.000003
  0O   2py        0.003659  0.033503  0.057056 -0.034942  0.005181 -0.000004
  0O   3pz       -0.004476  0.034916 -0.023278 -0.288944  0.014831  0.000004
  0O   3px       -0.003060 -0.127933  0.017572 -0.197455 -0.054368  0.000016
  0O   3py       -0.001965  0.119481  0.025651 -0.127003  0.050770 -0.000006
  0O   4pz       -1.443384  0.028711 -0.090209 -0.767116  0.019671 -0.000042
  0O   4px       -0.986413 -0.105216  0.068049 -0.524240 -0.072105  0.000050
  0O   4py       -0.634367  0.098235  0.099257 -0.337137  0.067337 -0.000083
  0O   1dz2       0.000124 -0.000343 -0.000337  0.000477 -0.000837 -0.001508
  0O   1dxz      -0.000214  0.000090  0.000858 -0.000820 -0.000777  0.000063
  0O   1dyz       0.000277  0.000553 -0.000451  0.001063 -0.000001  0.000576
  0O   1dx2y2    -0.000288  0.000155 -0.001269 -0.001103 -0.000018  0.000028
  0O   1dxy       0.000052 -0.000895 -0.000282  0.000200 -0.001284  0.000944
  0O   2dz2      -0.001327  0.002744  0.001012 -0.000790 -0.001916 -0.000819
  0O   2dxz       0.002284  0.003999 -0.002580  0.001360 -0.006315  0.000033
  0O   2dyz      -0.002958  0.001967  0.001356 -0.001762 -0.006142  0.000313
  0O   2dx2y2     0.003070  0.000634  0.003816  0.001829 -0.001839  0.000015
  0O   2dxy      -0.000558  0.002900  0.000847 -0.000332  0.001160  0.000513
  0O   3dz2      -0.011203 -0.002790 -0.008806 -0.002352 -0.055172 -0.121548
  0O   3dxz       0.019279  0.030280  0.022468  0.004055 -0.072227  0.005040
  0O   3dyz      -0.024979  0.044482 -0.011793 -0.005251 -0.028506  0.046412
  0O   3dx2y2     0.025926  0.012959 -0.033217  0.005451 -0.009531  0.002266
  0O   3dxy      -0.004712 -0.033981 -0.007371 -0.000986 -0.065685  0.076090
  0O   1f0        0.000359  0.000160  0.000031  0.000133  0.000057  0.000549
  0O   1f+1      -0.000196 -0.000118  0.000019  0.000032 -0.000128 -0.000837
  0O   1f-1      -0.000531  0.000296  0.000032 -0.000129  0.000007  0.000619
  0O   1f+2      -0.000071 -0.000425  0.000027  0.000014  0.000243  0.000354
  0O   1f-2       0.000062  0.000137 -0.000067  0.000110  0.000121  0.000155
  0O   1f+3       0.000307  0.000237  0.000042  0.000118  0.000121 -0.000665
  0O   1f-3      -0.000278  0.000124 -0.000012 -0.000134  0.000249 -0.000670
  0O   2f0        0.001161  0.001594 -0.002812 -0.001448 -0.005245 -0.010849
  0O   2f+1       0.005218 -0.000092 -0.001601 -0.003919  0.004682  0.016546
  0O   2f-1       0.002091  0.004188 -0.001367 -0.000923 -0.008743 -0.012227
  0O   2f+2       0.001992 -0.009180 -0.001149 -0.001502  0.010104 -0.006987
  0O   2f-2       0.005047  0.000465  0.003539 -0.004151 -0.005189 -0.003062
  0O   2f+3       0.001212  0.001906 -0.001216 -0.001414 -0.008108  0.013136
  0O   2f-3      -0.002620 -0.001337 -0.000146  0.002507 -0.006045  0.013250
  0O   1g0        0.000320 -0.000344 -0.000284 -0.000206  0.000894 -0.000270
  0O   1g+1      -0.000077 -0.000293  0.000206  0.000058 -0.000534 -0.001329
  0O   1g-1       0.000463  0.000128 -0.000363 -0.000291 -0.000871 -0.002716
  0O   1g+2      -0.000627 -0.000380  0.000267  0.000380 -0.000705 -0.001192
  0O   1g-2       0.000452 -0.000085  0.000040 -0.000287 -0.000969  0.001983
  0O   1g+3       0.000731 -0.000566  0.000287 -0.000455 -0.000450  0.000340
  0O   1g-3       0.000276  0.000557  0.000486 -0.000173  0.000573 -0.000697
  0O   1g+4       0.000145 -0.000143  0.000145 -0.000089  0.000605 -0.001771
  0O   1g-4       0.000493  0.000223  0.000121 -0.000320  0.000316 -0.000408
  0O   8s        -0.000005 -1.430197 -0.000142 -0.000195  8.895196 -0.000100
  0O   5pz       -1.602495 -0.348483  0.977889 -1.142949 -0.022425 -0.000017
  0O   5px       -1.095124  1.276456 -0.738491 -0.781097  0.082005  0.000034
  0O   5py       -0.704263 -1.191961 -1.076795 -0.502303 -0.076614 -0.000041
  0O   4dz2      -0.110220  0.066933  0.030821 -0.154443  0.385182  0.421692
  0O   4dxz       0.189675  0.046351 -0.078605  0.265742  0.534608 -0.017494
  0O   4dyz      -0.245734 -0.021290  0.041283 -0.344313  0.240098 -0.161026
  0O   4dx2y2     0.255047 -0.004794  0.116259  0.357355  0.078574 -0.007870
  0O   4dxy      -0.046348  0.116965  0.025794 -0.064951  0.431093 -0.263955
  1H   1s        -0.002735  0.009850  0.000001 -0.011065 -0.013446 -0.000000
  1H   2s         0.017985 -0.001383  0.000001 -0.061172  0.000026  0.000002
  1H   3s        -0.900712 -0.532303 -0.000094 -0.875483 -0.242065  0.000080
  1H   4s        -4.926379  1.259257 -0.000052 -1.460282 -4.843776 -0.000130
  1H   1pz        0.000231  0.002916  0.000574 -0.000019  0.003562  0.000616
  1H   1px       -0.000506  0.003675 -0.000433  0.000304 -0.002916 -0.000466
  1H   1py        0.000558  0.000128 -0.000631 -0.000226  0.005236 -0.000678
  1H   2pz       -0.011778 -0.029007 -0.003270  0.005806  0.004064 -0.003098
  1H   2px       -0.013822 -0.038824  0.002462  0.015598  0.040374  0.002343
  1H   2py       -0.001216  0.000286  0.003595 -0.005427 -0.024009  0.003409
  1H   3pz       -0.109496 -0.057825  0.028834 -0.136569  0.007118 -0.059511
  1H   3px       -0.168637 -0.082205 -0.021799 -0.240974 -0.067176  0.044980
  1H   3py        0.016235  0.003882 -0.031748  0.041274  0.052550  0.065540
  1H   1dz2       0.000190  0.000132 -0.000050 -0.000113 -0.000370  0.000022
  1H   1dxz       0.000147 -0.000796 -0.000269  0.001720  0.001982 -0.000163
  1H   1dyz       0.000086 -0.000163  0.000205 -0.000653 -0.000024  0.000103
  1H   1dx2y2    -0.000035 -0.000600  0.000410  0.001411  0.001615  0.000245
  1H   1dxy       0.000242  0.000382  0.000189  0.000062 -0.000755  0.000081
  1H   2dz2      -0.003063 -0.000211  0.003404  0.005211 -0.012250 -0.024258
  1H   2dxz      -0.025256 -0.017590  0.001808 -0.022504 -0.006251 -0.011601
  1H   2dyz      -0.000001  0.000631 -0.002639  0.006226 -0.011294  0.017914
  1H   2dx2y2    -0.015658 -0.012243 -0.003014 -0.020280  0.005788  0.019504
  1H   2dxy      -0.002751  0.000811 -0.003268  0.006625 -0.012439  0.022533
  1H   1f0        0.001865  0.000796  0.000651  0.001397 -0.001029 -0.000608
  1H   1f+1      -0.002270 -0.000894  0.000897  0.000072 -0.001936 -0.005084
  1H   1f-1       0.000005 -0.000499 -0.000179 -0.000484 -0.000918  0.001401
  1H   1f+2      -0.003407 -0.001794 -0.000064 -0.001506  0.000010  0.000485
  1H   1f-2       0.000122 -0.000308 -0.000701  0.000866 -0.002371  0.003877
  1H   1f+3       0.002191  0.000749  0.000195  0.001317 -0.001099 -0.003612
  1H   1f-3       0.000426 -0.000452  0.000624 -0.001293  0.001276 -0.003111
  1H   4pz       -0.621085  0.004989 -0.237119  0.384798  0.634469  1.107813
  1H   4px       -1.051646 -0.258963  0.178991  1.020443 -0.852864 -0.836780
  1H   4py        0.157326  0.182103  0.261019 -0.350569  1.161533 -1.219549
  2H   1s         0.002735  0.009849  0.000001  0.011065 -0.013445 -0.000000
  2H   2s        -0.017987 -0.001383 -0.000003  0.061177  0.000026 -0.000001
  2H   3s         0.900708 -0.532286 -0.000049  0.875533 -0.242023  0.000061
  2H   4s         4.926376  1.259343  0.000326  1.460491 -4.843883  0.000226
  2H   1pz       -0.000074 -0.003690  0.000573  0.000127 -0.001101 -0.000616
  2H   1px        0.000614 -0.000840 -0.000433 -0.000230 -0.006102  0.000465
  2H   1py       -0.000488 -0.002776 -0.000632  0.000274  0.003187  0.000678
  2H   2pz       -0.014433  0.037748 -0.003261  0.011154 -0.021358  0.003098
  2H   2px       -0.004091  0.006797  0.002467 -0.004009  0.023001 -0.002339
  2H   2py       -0.010304  0.029625  0.003600  0.012882 -0.035181 -0.003411
  2H   3pz       -0.152650  0.077455  0.028853 -0.204503  0.026011  0.059516
  2H   3px       -0.010513  0.010247 -0.021780  0.007893 -0.054256 -0.044965
  2H   3py       -0.131446  0.063333 -0.031747 -0.191173  0.060859 -0.065545
  2H   1dz2      -0.000147 -0.000240  0.000266 -0.000961  0.000721 -0.000108
  2H   1dxz      -0.000221 -0.000157 -0.000282  0.000129  0.000105  0.000167
  2H   1dyz       0.000010 -0.000992  0.000084 -0.001742  0.002408 -0.000071
  2H   1dx2y2    -0.000065  0.000260  0.000404  0.001074 -0.000909 -0.000243
  2H   1dxy      -0.000224  0.000225 -0.000009 -0.000513 -0.000297 -0.000027
  2H   2dz2       0.013499 -0.008526 -0.004961  0.009660 -0.005985 -0.034305
  2H   2dxz       0.007296 -0.003279  0.002157 -0.003082 -0.017031  0.014034
  2H   2dyz       0.023268 -0.017909  0.000552  0.026927  0.002672  0.004450
  2H   2dx2y2    -0.008492  0.006999 -0.002856 -0.014127 -0.008705 -0.018410
  2H   2dxy       0.007139 -0.002686  0.001966 -0.000369 -0.009805  0.014127
  2H   1f0       -0.000203 -0.000279  0.001187  0.000847  0.000569  0.005156
  2H   1f+1      -0.000792  0.000854  0.000080  0.000116  0.002190 -0.001853
  2H   1f-1      -0.003865  0.001847  0.000425 -0.001915 -0.000029  0.003726
  2H   1f+2       0.002263 -0.001142  0.000281  0.001602  0.001593  0.002445
  2H   1f-2      -0.001617  0.000466 -0.000550  0.000694  0.002046 -0.002593
  2H   1f+3      -0.000851 -0.000127 -0.000454  0.000654  0.000454 -0.001896
  2H   1f-3      -0.001081  0.000041 -0.000031 -0.000862 -0.001433 -0.002444
  2H   4pz       -0.909623  0.115731 -0.237124  0.733281 -0.042512 -1.107896
  2H   4px        0.005548 -0.183258  0.179021 -0.256291 -1.315667  0.836636
  2H   4py       -0.830082  0.230796  0.261010  0.841889  0.863915  1.219591
                     12        13        14        15        16        17   
                   0.21835   0.22596   0.25636   0.29128   0.30499   0.39610
                   0.00000   0.00000   0.00000   0.00000   0.00000   0.00000
                  --------  --------  --------  --------  --------  --------
  0O   1s         0.007162  0.000000 -0.000000 -0.039961 -0.000000  0.018079
  0O   2s         0.002163 -0.000000 -0.000000 -0.009573 -0.000000  0.002647
  0O   3s         0.005692  0.000000 -0.000000 -0.041001 -0.000000  0.024161
  0O   4s         0.014833 -0.000000  0.000000 -0.052873 -0.000000  0.007174
  0O   5s        -0.041271  0.000001  0.000001  0.229740 -0.000000 -0.032221
  0O   6s        -0.094636 -0.000007 -0.000001 -0.466981  0.000009 -0.195851
  0O   7s        -2.981641 -0.000040  0.000039  3.231323  0.000073  2.080406
  0O   1pz       -0.022016  0.040104 -0.083250  0.015064  0.027854  0.004816
  0O   1px        0.080662 -0.030290 -0.056894 -0.055196  0.019037 -0.017667
  0O   1py       -0.075337 -0.044152 -0.036587  0.051552  0.012244  0.016497
  0O   2pz       -0.036188  0.072692 -0.176966  0.001077  0.070207 -0.009789
  0O   2px        0.132589 -0.054903 -0.120939 -0.003937  0.047979  0.035865
  0O   2py       -0.123834 -0.080030 -0.077776  0.003679  0.030858 -0.033497
  0O   3pz       -0.042035 -0.212526 -0.049096  0.068636  0.102983  0.101062
  0O   3px        0.154054  0.160511 -0.033559 -0.251472  0.070368 -0.370113
  0O   3py       -0.143879  0.233949 -0.021574  0.234870  0.045279  0.345725
  0O   4pz       -0.651787  0.982355 -3.675386  0.055514  3.395647  0.206776
  0O   4px        2.388116 -0.741903 -2.511780 -0.203423  2.320569 -0.756972
  0O   4py       -2.230428 -1.081456 -1.615307  0.189988  1.492391  0.707154
  0O   1dz2       0.000521 -0.000017 -0.000495 -0.000246  0.000338  0.001154
  0O   1dxz      -0.000019  0.000043  0.000852 -0.000035 -0.000581  0.000623
  0O   1dyz      -0.000679 -0.000023 -0.001104  0.000262  0.000753 -0.000605
  0O   1dx2y2    -0.000187 -0.000064  0.001146  0.000071 -0.000781 -0.000152
  0O   1dxy       0.001253 -0.000014 -0.000208 -0.000554  0.000142  0.002176
  0O   2dz2      -0.002200 -0.001182 -0.003591 -0.005303 -0.000502 -0.004292
  0O   2dxz       0.001115  0.003016  0.006180 -0.011721  0.000864  0.013315
  0O   2dyz       0.004269 -0.001585 -0.008007 -0.009206 -0.001119  0.023408
  0O   2dx2y2     0.001202 -0.004459  0.008310 -0.002809  0.001162  0.006754
  0O   2dxy      -0.006229 -0.000989 -0.001510 -0.001994 -0.000211 -0.022218
  0O   3dz2      -0.026836 -0.019895 -0.028933  0.018387  0.011192  0.007957
  0O   3dxz      -0.068203  0.050763  0.049789  0.072076 -0.019263  0.002291
  0O   3dyz      -0.058617 -0.026666 -0.064504  0.074464  0.024959 -0.006862
  0O   3dx2y2    -0.017731 -0.075061  0.066951  0.022185 -0.025902 -0.001846
  0O   3dxy      -0.002066 -0.016645 -0.012167 -0.021486  0.004703  0.016805
  0O   1f0       -0.000077  0.001053  0.000875 -0.001461 -0.000341 -0.000155
  0O   1f+1       0.000007  0.000598 -0.001100  0.000602 -0.000393 -0.000135
  0O   1f-1      -0.000199  0.000498 -0.001700 -0.003244  0.000127 -0.000572
  0O   1f+2       0.000432  0.000418 -0.000408  0.006040 -0.000153  0.001552
  0O   1f-2      -0.000024 -0.001303 -0.000363 -0.000858 -0.000539  0.000075
  0O   1f+3      -0.000093  0.000433  0.000725 -0.001963 -0.000313 -0.000125
  0O   1f-3       0.000059  0.000066 -0.000496 -0.000007  0.000434  0.000473
  0O   2f0       -0.001998 -0.017469  0.004673  0.008158  0.002617  0.000314
  0O   2f+1       0.001952 -0.009836  0.016795 -0.003111  0.009054  0.001502
  0O   2f-1      -0.003136 -0.007434  0.005680  0.018402  0.002952  0.002579
  0O   2f+2       0.003075 -0.006257  0.006421 -0.034877  0.003462 -0.008798
  0O   2f-2      -0.002118  0.020242  0.016829  0.004585  0.009134 -0.001179
  0O   2f+3      -0.003159 -0.005828  0.004718  0.010860  0.002629 -0.000261
  0O   2f-3      -0.002704 -0.001725 -0.009307 -0.000552 -0.005110 -0.003891
  0O   1g0        0.000308 -0.002065  0.001010 -0.001357  0.000207  0.000050
  0O   1g+1      -0.000563  0.001589 -0.000365 -0.000368 -0.000232 -0.000742
  0O   1g-1      -0.000398 -0.002484  0.001351  0.000823  0.000132 -0.000119
  0O   1g+2      -0.000632  0.001610 -0.001621 -0.000485  0.000131 -0.000569
  0O   1g-2      -0.000743  0.000002  0.001370  0.000398  0.000206 -0.000938
  0O   1g+3      -0.000520  0.001900  0.002072 -0.001095  0.000120 -0.000334
  0O   1g-3       0.000727  0.002833  0.000795  0.000976  0.000067  0.000911
  0O   1g+4       0.000126  0.000792  0.000391 -0.000681 -0.000007 -0.000407
  0O   1g-4       0.000291  0.001335  0.001593  0.000346  0.000375  0.000208
  0O   8s       -15.003729 -0.000106  0.000056  7.486200 -0.000021  8.004753
  0O   5pz       -0.468453  1.024440 -2.000355 -0.031797 -0.001739  0.279529
  0O   5px        1.716367 -0.773739 -1.367055  0.116528 -0.001172 -1.024006
  0O   5py       -1.603045 -1.127821 -0.879146 -0.108831 -0.000758  0.956457
  0O   4dz2       0.075953  0.053804 -0.178168 -0.024209  0.243422  0.051317
  0O   4dxz      -0.123556 -0.137281  0.306600 -0.067849 -0.418897  0.763758
  0O   4dyz      -0.262511  0.072105 -0.397217 -0.061434  0.542714  0.969318
  0O   4dx2y2    -0.075175  0.202986  0.412279 -0.018500 -0.563294  0.284627
  0O   4dxy       0.291902  0.045017 -0.074925  0.003842  0.102355 -0.568420
  1H   1s         0.007565 -0.000000  0.002861 -0.021256  0.003601  0.042428
  1H   2s         0.058648 -0.000001  0.077434 -0.212278 -0.035932  0.040814
  1H   3s         1.705461  0.000022 -1.827925 -0.176888  1.541948 -1.087456
  1H   4s         8.079179  0.000205-10.268694 -4.522236 17.296394 -4.515740
  1H   1pz        0.002291 -0.000911  0.003988  0.001989 -0.007515 -0.003460
  1H   1px       -0.001972  0.000688  0.005842  0.001289 -0.000562 -0.006180
  1H   1py        0.003433  0.001002 -0.000385  0.000923 -0.006441  0.001097
  1H   2pz       -0.022823  0.007048 -0.008865 -0.003303  0.038751  0.004958
  1H   2px       -0.004357 -0.005323 -0.006628 -0.011202 -0.003045  0.022850
  1H   2py       -0.017741 -0.007758 -0.003504  0.004686  0.037289 -0.011170
  1H   3pz        0.314871  0.067026 -0.209918  0.009757 -0.079017 -0.266211
  1H   3px        0.398743 -0.050619 -0.265437  0.033724  0.208528 -0.359188
  1H   3py        0.012447 -0.073789 -0.008573 -0.014273 -0.214843  0.004612
  1H   1dz2       0.000008  0.000056 -0.000273  0.001014  0.000808  0.000196
  1H   1dxz      -0.002911 -0.000137  0.001871  0.000183  0.000230  0.001945
  1H   1dyz       0.000266  0.000071  0.000196  0.001149  0.001212  0.001326
  1H   1dx2y2    -0.002089  0.000202  0.001428 -0.000759 -0.000612  0.000937
  1H   1dxy       0.000106  0.000043 -0.000722  0.000929  0.000554 -0.000652
  1H   2dz2      -0.013821  0.027424 -0.016683 -0.005796 -0.015118 -0.006085
  1H   2dxz       0.029038  0.015159 -0.055111  0.035460  0.002814 -0.012481
  1H   2dyz      -0.009711 -0.021654 -0.007872 -0.009226 -0.014230 -0.001466
  1H   2dx2y2     0.030964 -0.025130 -0.026191  0.030321  0.014532 -0.004563
  1H   2dxy      -0.019003 -0.026665 -0.017413 -0.006883 -0.016090 -0.007859
[...]
  2H   1f-3       0.213802 -0.052088  0.195403 -0.197182 -0.048168  0.019674
  2H   4pz        0.015114  0.066319  0.024658  0.005038 -0.131667  0.060445
  2H   4px       -0.011415 -0.043824 -0.035980 -0.045559  0.008850 -0.005045
  2H   4py       -0.016637  0.090308  0.047082  0.035834 -0.125672  0.058367



                    ********************************
                    * MULLIKEN POPULATION ANALYSIS *
                    ********************************

-----------------------
MULLIKEN ATOMIC CHARGES
-----------------------
   0 O :   -0.518861
   1 H :    0.259415
   2 H :    0.259446
Sum of atomic charges:    0.0000000

--------------------------------
MULLIKEN REDUCED ORBITAL CHARGES
--------------------------------
  0 O s       :     3.865252  s :     3.865252
      pz      :     1.473815  p :     4.632345
      px      :     1.511417
      py      :     1.647112
      dz2     :     0.001199  d :     0.019904
      dxz     :     0.003430
      dyz     :     0.005935
      dx2y2   :     0.006283
      dxy     :     0.003056
      f0      :     0.000148  f :     0.001300
      f+1     :     0.000063
      f-1     :     0.000344
      f+2     :     0.000553
      f-2     :     0.000072
      f+3     :     0.000075
      f-3     :     0.000045
      g0      :     0.000002  g :     0.000060
      g+1     :     0.000004
      g-1     :     0.000004
      g+2     :     0.000021
      g-2     :     0.000001
      g+3     :     0.000015
      g-3     :     0.000011
      g+4     :     0.000001
      g-4     :     0.000001

  1 H s       :     0.641062  s :     0.641062
      pz      :     0.027278  p :     0.088402
      px      :     0.023832
      py      :     0.037291
      dz2     :     0.002637  d :     0.009975
      dxz     :     0.001540
      dyz     :     0.001376
      dx2y2   :     0.001609
      dxy     :     0.002813
      f0      :     0.000060  f :     0.001146
      f+1     :     0.000373
      f-1     :     0.000008
      f+2     :     0.000143
      f-2     :     0.000224
      f+3     :     0.000146
      f-3     :     0.000192

  2 H s       :     0.641035  s :     0.641035
      pz      :     0.023861  p :     0.088398
      px      :     0.032388
      py      :     0.032149
      dz2     :     0.003444  d :     0.009975
      dxz     :     0.002398
      dyz     :     0.001150
      dx2y2   :     0.001385
      dxy     :     0.001598
      f0      :     0.000256  f :     0.001146
      f+1     :     0.000081
      f-1     :     0.000260
      f+2     :     0.000157
      f-2     :     0.000264
      f+3     :     0.000070
      f-3     :     0.000058



                     *******************************
                     * LOEWDIN POPULATION ANALYSIS *
                     *******************************

----------------------
LOEWDIN ATOMIC CHARGES
----------------------
   0 O :    0.840686
   1 H :   -0.420343
   2 H :   -0.420343

-------------------------------
LOEWDIN REDUCED ORBITAL CHARGES
-------------------------------
  0 O s       :     3.019364  s :     3.019364
      pz      :     1.304851  p :     4.068376
      px      :     1.355301
      py      :     1.408224
      dz2     :     0.004495  d :     0.061960
      dxz     :     0.018136
      dyz     :     0.021309
      dx2y2   :     0.016876
      dxy     :     0.001145
      f0      :     0.001428  f :     0.009152
      f+1     :     0.000339
      f-1     :     0.001520
      f+2     :     0.002384
      f-2     :     0.001386
      f+3     :     0.001107
      f-3     :     0.000988
      g0      :     0.000080  g :     0.000461
      g+1     :     0.000048
      g-1     :     0.000076
      g+2     :     0.000039
      g-2     :     0.000027
      g+3     :     0.000037
      g-3     :     0.000074
      g+4     :     0.000012
      g-4     :     0.000068

  1 H s       :     0.639550  s :     0.639550
      pz      :     0.155350  p :     0.550580
      px      :     0.238557
      py      :     0.156673
      dz2     :     0.040065  d :     0.190934
      dxz     :     0.041384
      dyz     :     0.020223
      dx2y2   :     0.040106
      dxy     :     0.049156
      f0      :     0.001952  f :     0.039279
      f+1     :     0.012249
      f-1     :     0.000374
      f+2     :     0.004603
      f-2     :     0.007552
      f+3     :     0.005592
      f-3     :     0.006956

  2 H s       :     0.639550  s :     0.639550
      pz      :     0.194501  p :     0.550581
      px      :     0.140522
      py      :     0.215558
      dz2     :     0.054423  d :     0.190934
      dxz     :     0.037550
      dyz     :     0.042697
      dx2y2   :     0.028585
      dxy     :     0.027679
      f0      :     0.007987  f :     0.039279
      f+1     :     0.003046
      f-1     :     0.008498
      f+2     :     0.005825
      f-2     :     0.008847
      f+3     :     0.002558
      f-3     :     0.002518



                      *****************************
                      * MAYER POPULATION ANALYSIS *
                      *****************************

  NA   - Mulliken gross atomic population
  ZA   - Total nuclear charge
  QA   - Mulliken gross atomic charge
  VA   - Mayer's total valence
  BVA  - Mayer's bonded valence
  FA   - Mayer's free valence

  ATOM       NA         ZA         QA         VA         BVA        FA
  0 O      8.5189     8.0000    -0.5189     1.9511     1.9511     0.0000
  1 H      0.7406     1.0000     0.2594     0.9930     0.9930     0.0000
  2 H      0.7406     1.0000     0.2594     0.9930     0.9930     0.0000

  Mayer bond orders larger than 0.100000
B(  0-O ,  1-H ) :   0.9756 B(  0-O ,  2-H ) :   0.9756 

-------
TIMINGS
-------

Total SCF time: 0 days 0 hours 0 min 1 sec 

Total time                  ....       1.325 sec
Sum of individual times     ....       1.017 sec  ( 76.8%)

SCF preparation             ....       0.180 sec  ( 13.6%)
Fock matrix formation       ....       0.773 sec  ( 58.4%)
  Startup                   ....       0.004 sec  (  0.5% of F)
  Split-RI-J                ....       0.017 sec  (  2.1% of F)
  Chain of spheres X        ....       0.610 sec  ( 78.8% of F)
  XC integration            ....       0.392 sec  ( 50.7% of F)
    XC Preparation          ....       0.007 sec  (  1.8% of XC)
    XC Prescreening         ....       0.025 sec  (  6.4% of XC)
    Basis function eval.    ....       0.126 sec  ( 32.1% of XC)
    Density eval.           ....       0.045 sec  ( 11.6% of XC)
    XC-Functional eval.     ....       0.008 sec  (  2.0% of XC)
    XC-Potential eval.      ....       0.061 sec  ( 15.5% of XC)
Diagonalization             ....       0.000 sec  (  0.0%)
Density matrix formation    ....       0.005 sec  (  0.4%)
Total Energy calculation    ....       0.004 sec  (  0.3%)
Population analysis         ....       0.017 sec  (  1.3%)
Orbital Transformation      ....       0.008 sec  (  0.6%)
Orbital Orthonormalization  ....       0.000 sec  (  0.0%)
DIIS solution               ....       0.011 sec  (  0.9%)
SOSCF solution              ....       0.018 sec  (  1.3%)
Finished LeanSCF after   1.4 sec

Maximum memory used throughout the entire LEANSCF-calculation: 8.6 MB


           ************************************************************
           *        Program running with 16 parallel MPI-processes    *
           *              working on a common directory               *
           ************************************************************

------------------------------------------------------------------------------
                         ORCA PROPERTY INTEGRAL CALCULATIONS
------------------------------------------------------------------------------

GBWName                                   ... water.gbw
Number of atoms                           ...      3
Number of basis functions                 ...    132
Max core memory                           ...   4096 MB

Dipole integrals                          ... YES
Quadrupole integrals                      ... YES
Linear momentum integrals                 ...  NO
Angular momentum integrals                ...  NO
Higher moments length integrals           ...  NO
Higher moments velocity integrals         ...  NO
Kinetic energy integrals                  ...  NO
GIAO right hand sides                     ...  NO
GIAO dipole derivative integrals          ...  NO
SOC integrals                             ...  NO
EPR diamagnetic integrals (GIAO)          ...  NO
EPR gauge integrals                       ...  NO
Field gradient integrals                  ...  NO (   0 nuclei)
Spin-dipole/Fermi contact integrals       ...  NO (   0 nuclei)
Contact density integrals                 ...  NO (   0 nuclei)
Nucleus-orbit integrals                   ...  NO (   0 nuclei)
Geometric perturbations                   ...  NO (   3 nuclei)

Choice of electric origin   ... Center of mass
Position of electric origin ... ( 10.7843,  6.2817,  5.1797) 
Choice of magnetic origin   ... GIAO
Position of magnetic origin ... (  0.0000,  0.0000,  0.0000) 

Calculating integrals                     ... Electric Dipole (Length)     done (  0.0 sec)
Calculating integrals                     ... Electric Quadrupole (Length) done (  0.0 sec)

Property integrals calculated in   0.0 sec

Maximum memory used throughout the entire PROPINT-calculation: 10.4 MB

-------------------------   --------------------
FINAL SINGLE POINT ENERGY       -76.440161157684
-------------------------   --------------------

                                *** OPTIMIZATION RUN DONE ***



           ************************************************************
           *        Program running with 16 parallel MPI-processes    *
           *              working on a common directory               *
           ************************************************************

------------------------------------------------------------------------------
                              ORCA PROPERTY CALCULATIONS
------------------------------------------------------------------------------

GBWName                                 ... water.gbw
Number of atoms                         ...      3
Number of basis functions               ...    132
Max core memory                         ...   4096 MB

Electric properties:
Dipole moment                           ... YES
Quadrupole moment                       ... YES
Static polarizability (Dipole/Dipole)   ...  NO
Static polarizability (Dipole/Quad.)    ...  NO
Static polarizability (Quad./Quad.)     ...  NO
Static polarizability (Velocity)        ...  NO
Static hyperpolarizability              ...  NO

Atomic electric properties:
Dipole moment                           ...  NO
Quadrupole moment                       ...  NO
Static polarizability                   ...  NO

Choice of electric origin               ... Center of mass
Position of electric origin             ...    10.784270     6.281700     5.179719

General magnetic properties:
Magnetizability                         ...  NO

EPR properties:
g-Tensor (aka g-matrix)                 ...  NO
Zero-Field splitting spin-orbit         ...  NO
Zero-field splitting spin-spin          ...  NO
Hyperfine couplings                     ...  NO (   0 nuclei)
Quadrupole couplings                    ...  NO (   0 nuclei)
Contact density                         ...  NO (   0 nuclei)

NMR properties:
Chemical shifts                         ...  NO (   0 nuclei)
Spin-rotation constants                 ...  NO (   0 nuclei)
Spin-spin couplings                     ...  NO (   0 nuclei,    0 pairs)

Choice of magnetic origin               ... GIAO
Position of magnetic origin             ...     0.000000     0.000000     0.000000

Properties with geometric perturbations:
SCF Hessian                             ...  NO
IR spectrum                             ...  NO
VCD spectrum                            ...  NO
X-ray spectroscopy properties:
SCF XES/XAS/RIXS spectra                ...  NO

SCF SOC stabilization energy            ...  NO
Diagonal Born-Oppenheimer correction    ...  NO

-------------
DIPOLE MOMENT
-------------

Method             : SCF
Type of density    : Electron Density
Multiplicity       :   1
Irrep              :   0
Energy             :   -76.4401611576839173 Eh
Basis              : AO
                                X                 Y                 Z
Electronic contribution:      0.173765559      -0.162289004      -0.047423223
Nuclear contribution   :     -0.696842719       0.650833545       0.190183675
                        -----------------------------------------
Total Dipole Moment    :     -0.523077161       0.488544540       0.142760452
                        -----------------------------------------
Magnitude (a.u.)       :      0.729839729
Magnitude (Debye)      :      1.855105164



--------------------
Rotational spectrum 
--------------------
 
Rotational constants in cm-1:            27.602006            14.468733             9.492727 
Rotational constants in MHz :        827487.334543        433761.701859        284584.807710 

Dipole components along the rotational axes: 
x,y,z [a.u.] :     0.000002    -0.729840     0.000002 
x,y,z [Debye]:     0.000005    -1.855105     0.000004 

 

Dipole moment calculation done in   0.0 sec 

-----------------
QUADRUPOLE MOMENT
-----------------

Method             : SCF
Type of density    : Electron Density
Multiplicity       :   1
Irrep              :   0
Energy             :   -76.4401611576839173 Eh
Basis              : AO

                XX              YY              ZZ              XY              XZ              YZ
  NUC        2.210890458     1.395917773     2.564436399    -0.233661741     1.412612228     1.360273615
  EL        -6.746857786    -6.417151741    -6.838362626     0.141668853    -0.545524967    -0.552508938
  TOT       -4.535967328    -5.021233968    -4.273926227    -0.091992888     0.867087261     0.807764677 (a.u.)
            -6.101031186    -6.753731413    -5.748576943    -0.123733580     1.166262020     1.086471116 (Buckingham)

diagonalized tensor:
            -5.818084022    -4.686696125    -3.326347376 (a.u.)
            -7.825521988    -6.303766572    -4.474050982 (Buckingham)
            -4.873226421    -0.307960175     5.181186596 (traceless form in Buckingham)

             0.452792254     0.716703498     0.530391621
             0.659984199    -0.669383944     0.341095285
            -0.599499819    -0.195604786     0.776104848
        
Isotropic quadrupole :    -4.610375841

Quadrupole moment calculation done in   0.0 sec (  0.0 sec for integrals)

Maximum memory used throughout the entire PROP-calculation: 5.3 MB

--------------------------------
SUGGESTED CITATIONS FOR THIS RUN
--------------------------------

Below you find a list of papers that are relevant to this ORCA run
We neither can nor want to force you to cite these papers, but we appreciate if you do
You receive ORCA, which is the product of decades of hard work by many enthusiastic individuals, for free
The only thing we kindly ask in return is that you cite our papers,
We deeply appreciate it, if you show your appreciation for ORCA by not just citing the generic ORCA reference.

Please note that relegating all ORCA citations to the supporting information does *not* help us.
SI sections are not indexed - citations you put there will not count into any citation statistics
But we need these citations in order to attract the funding resources that allow us to do what we are doing

Therefore, if you are a happy ORCA user, please consider citing a few of the papers listed below in the main body of your paper

In addition to the list printed below, the program has created the file water.bibtex that contains the list in bibtex format
You can import this file easily into all common literature databanks and citation aid programs


List of essential papers. We consider these as the minimum necessary citations

  1. Neese, F.
     Software update: the ORCA program system, version 6.0
     WIRES Comput. Molec. Sci. 2025 15(1), e70019
     doi.org/10.1002/wcms.7019

List of papers to cite with high priority. The work reported in these papers was absolutely
necessary for this run to complete.
Our perspective: the developers of density functionals and basis sets usually get cited in chemistry papers
Good! But without the algorithms to do something with them, the functionals or basis sets would not do anything.
Hence, in our opinion, the algorithm design and method developments papers are equally worthy of getting cited

  1. Neese, F.
     An improvement of the resolution of the identity approximation for the formation of the Coulomb matrix
     J. Comp. Chem. 2003 24(14), 1740-1747
     doi.org/10.1002/jcc.10318
  2. Neese, F.; Wennmohs, F.; Hansen, A.; Becker, U.
     Efficient, approximate and parallel Hartree-Fock and hybrid DFT calculations. A 'chain-of-spheres' algorithm for the Hartree-Fock exchange
     Chem. Phys. 2009 356(1-3), 98-109
     doi.org/10.1016/j.chemphys.2008.10.036
  3. Lehtola, S.; Steigemann, C.; Oliveira, M.; Marques, M.
     Recent developments in Libxc - A comprehensive library of functionals for density functional theory
     Software X 2018 7 , 
     doi.org/10.1016/j.softx.2017.11.002
  4. Helmich-Paris, B.; de Souza, B.; Neese, F.; Izsák, R.
     An improved chain of spheres for exchange algorithm
     J. Chem. Phys. 2021 155(10), 104109
     doi.org/10.1063/5.0058766
  5. Neese, F.
     The SHARK Integral Generation and Digestion System
     J. Comp. Chem. 2022 44(3), 381
     doi.org/10.1002/jcc.26942

List of suggested additional citations. These are papers that are important in the 'surrounding' of 
of this run, or papers that preceded the highly important papers. If you like your results we are grateful for a citation.

  1. Izsak, R.; Neese, F.
     An overlap fitted chain of spheres exchange method
     J. Chem. Phys. 2011 135 , 144105
     doi.org/10.1063/1.3646921
  2. Izsak, R.; Hansen, A.; Neese, F.
     The resolution of identity and chain of spheres approximations for the LPNO-CCSD singles Fock term
     Molec. Phys. 2012 110 , 2413-2417
     doi.org/10.1080/00268976.2012.687466
  3. Neese, F.
     The ORCA program system
     WIRES Comput. Molec. Sci. 2012 2(1), 73-78
     doi.org/10.1002/wcms.81
  4. Izsak, R.; Neese, F.; Klopper, W.
     Robust fitting techniques in the chain of spheres approximation to the Fock exchange: The role of the complementary space
     J. Chem. Phys. 2013 139 , 
     doi.org/10.1063/1.4819264
  5. Neese, F.
     Software update: the ORCA program system, version 4.0
     WIRES Comput. Molec. Sci. 2018 8(1), 1-6
     doi.org/10.1002/wcms.1327
  6. Neese, F.; Wennmohs, F.; Becker, U.; Riplinger, C.
     The ORCA quantum chemistry program package
     J. Chem. Phys. 2020 152(22), 224108
     doi.org/10.1063/5.0004608
  7. Neese, F.
     Software update: The ORCA program system—Version 5.0
     WIRES Comput. Molec. Sci. 2022 12(1), e1606
     doi.org/10.1002/wcms.1606

List of optional additional citations

  1. Neese, F.
     Approximate second-order SCF convergence for spin unrestricted wavefunctions
     Chem. Phys. Lett. 2000 325(1-3), 93-98
     doi.org/10.1016/s0009-2614(00)00662-x

Timings for individual modules:

Sum of individual times          ...       30.227 sec (=   0.504 min)
Startup calculation              ...        4.654 sec (=   0.078 min)  15.4 %
SCF iterations                   ...       17.408 sec (=   0.290 min)  57.6 %
Property integrals               ...        1.689 sec (=   0.028 min)   5.6 %
Property calculations            ...        0.271 sec (=   0.005 min)   0.9 %
SCF Gradient evaluation          ...        6.195 sec (=   0.103 min)  20.5 %
Geometry relaxation              ...        0.010 sec (=   0.000 min)   0.0 %
                             ****ORCA TERMINATED NORMALLY****
TOTAL RUN TIME: 0 days 0 hours 0 minutes 31 seconds 782 msec
