CRYSTAL
PRIMVEC
  17.543876553    0.000000000    0.000000000
   0.000000000   17.543876553    0.000000000
   0.000000000    0.000000000   17.543876553
PRIMCOORD
        3           1
O         8.770451552    9.174907782    8.771938274
H         9.544851428    8.573414302    8.771938274
H         8.000511848    8.567492748    8.771938274
