
                                 *****************
                                 * O   R   C   A *
                                 *****************

                                            #,                                       
                                            ###                                      
                                            ####                                     
                                            #####                                    
                                            ######                                   
                                           ########,                                 
                                     ,,################,,,,,                         
                               ,,#################################,,                 
                          ,,##########################################,,             
                       ,#########################################, ''#####,          
                    ,#############################################,,   '####,        
                  ,##################################################,,,,####,       
                ,###########''''           ''''###############################       
              ,#####''   ,,,,##########,,,,          '''####'''          '####       
            ,##' ,,,,###########################,,,                        '##       
           ' ,,###''''                  '''############,,,                           
         ,,##''                                '''############,,,,        ,,,,,,###''
      ,#''                                            '''#######################'''  
     '                                                          ''''####''''         
             ,#######,   #######,   ,#######,      ##                                
            ,#'     '#,  ##    ##  ,#'     '#,    #''#        ,####,    ,#,          
            ##       ##  ##   ,#'  ##            #'  '#       #'       ,# #          
            ##       ##  #######   ##           ,######,      #####,      #          
            '#,     ,#'  ##    ##  '#,     ,#' ,#      #,     #,   #      #          
             '#######'   ##     ##  '#######'  #'      '#     '####' #    #          



                #########################################################
                #                        -***-                          #
                #          Department of theory and spectroscopy        #
                #                                                       #
                #                      Frank Neese                      #
                #                                                       #
                #     Directorship, Architecture, Infrastructure        #
                #                    SHARK, DRIVERS                     #
                #        Core code/Algorithms in most modules           #
                #                                                       #
                #        Max Planck Institute fuer Kohlenforschung      #
                #                Kaiser Wilhelm Platz 1                 #
                #                 D-45470 Muelheim/Ruhr                 #
                #                      Germany                          #
                #                                                       #
                #                  All rights reserved                  #
                #                        -***-                          #
                #########################################################


                         Program Version 6.1.0  -  RELEASE   -
                                (GIT: $679e74b$)
                          ($2025-06-10 18:02:51 +0200$)


 With contributions from (in alphabetic order):
[Max-Planck-Institut fuer Kohlenforschung]                               
  Daniel Aravena         : Magnetic Suceptibility                        
  Michael Atanasov       : Ab Initio Ligand Field Theory (pilot matlab implementation)
  Alexander A. Auer      : GIAO ZORA, VPT2 properties, NMR spectrum      
  Ute Becker             : All parallelization in ORCA, NUMFREQ, NUMCALC 
  Giovanni Bistoni       : ED, misc. LED, open-shell LED, HFLD           
  Dmytro Bykov           : pre 5.0 version of the SCF Hessian            
  Marcos Casanova-Páez   : Triplet and SCS-CIS(D). UHF-(DLPNO)-IP/EA/STEOM-CCSD. UHF-CVS-IP/STEOM-CCSD   
  Vijay G. Chilkuri      : MRCI spin determinant printing, contributions to CSF-ICE 
  Pauline Colinet        : FMM embedding                                 
  Dipayan Datta          : RHF DLPNO-CCSD density                        
  Achintya Kumar Dutta   : EOM-CC, STEOM-CC                              
  Nicolas Foglia         : Exact transition moments, OPA infrastructure, MCD improvements    
  Dmitry Ganyushin       : Spin-Orbit,Spin-Spin,Magnetic field MRCI      
  Miquel Garcia-Rates    : C-PCM and meta-GGA Hessian, CCSD/C-PCM, Gaussian charge scheme 
  Tiago L. C. Gouveia    : GS-ROHF, GS-ROCIS                             
  Yang Guo               : DLPNO-NEVPT2, F12-NEVPT2, CIM, IAO-localization        
  Andreas Hansen         : Spin unrestricted coupled pair/coupled cluster methods 
  Ingolf Harden          : AUTO-CI MPn and infrastructure                
  Benjamin Helmich-Paris : MC-RPA, TRAH-(SCF,CASSCF), AVAS, COSX integrals, SCF dyn. polar., MC-PDFT, srDFT 
  Lee Huntington         : MR-EOM, pCC                                   
  Robert Izsak           : Overlap fitted RIJCOSX, COSX-SCS-MP3, EOM     
  Riya Kayal             : Wick's Theorem for AUTO-CI, AUTO-CI UHF-CCSDT 
  Emily Kempfer          : AUTO-CI RHF CISDT and CCSDT, approximate NEVPT4
  Christian Kollmar      : KDIIS, OOCD, Brueckner-CCSD(T), CCSD density, CASPT2, CASPT2-K, improved NEVPT2 
  Axel Koslowski         : Symmetry handling                             
  Simone Kossmann        : meta-GGA functionals, TD-DFT gradient, OOMP2, (MP2 Hessian; deprecated post 5.0) 
  Lucas Lang             : DCDCAS, Hyperfine gauge corrections, ICE-SOC+SSC
  Marvin Lechner         : AUTO-CI (C++ implementation), FIC-MRCC        
  Spencer Leger          : CASSCF response                               
  Dagmar Lenk            : GEPOL surface, SMD, ORCA-2-JSON               
  Dimitrios Liakos       : Extrapolation schemes; Compound Job, Property file
  Dimitrios Manganas     : Further ROCIS development; embedding schemes. LFT, Crystal Embedding 
  Dimitrios Pantazis     : SARC Basis sets                               
  Anastasios Papadopoulos: AUTO-CI, single reference methods and gradients 
  Taras Petrenko         : pre 6.0 DFT Hessian and TD-DFT gradient,  ECA, NRVS 
  Petra Pikulova         : Analytic Raman intensities                    
  Peter Pinski           : DLPNO-MP2, DLPNO-MP2 Gradient                 
  Shashank Vittal Rao    : ES-AILFT, MagRelax                            
  Christoph Reimann      : Effective Core Potentials                     
  Marius Retegan         : Local ZFS, SOC                                
  Christoph Riplinger    : Optimizer, TS searches, QM/MM, DLPNO-CCSD(T), (RO)-DLPNO pert. Triples 
  Michael Roemelt        : Original ROCIS implementation, recursive CI coupling coefficients
  Masaaki Saitow         : Open-shell DLPNO-CCSD energy and density      
  Barbara Sandhoefer     : DKH picture change effects                    
  Yorick L. A. Schmerwitz: GMF and freeze-and-release deltaSCF, NEB S-IDPP initial path                    
  Kantharuban Sivalingam : CASSCF convergence/infrastructure, NEVPT2, NEVPT3, NEVPT4(SD), FIC-MRCI and CEPA variants
  Bernardo de Souza      : ESD, SOC TD-DFT                               
  Georgi L. Stoychev     : AutoAux, RI-MP2 NMR, DLPNO-MP2 response, X2C  
  Van Anh Tran           : RI-MP2 g-tensors                              
  Willem Van den Heuvel  : Paramagnetic NMR                              
  Zikuan Wang            : NOTCH, Electric field optimization            
  Frank Wennmohs         : Technical directorship and infrastructure     
  Hang Xu                : AUTO-CI-Response properties                   
                                                                         
[FACCTs GmbH]                                                            
  Markus Bursch, Nicolas Foglia, Miquel Garcia-Rates, Ingolf Harden, Hagen Neugebauer, Anastasios Papadopoulos, 
  Christoph Riplinger, Bernardo de Souza, Georgi L. Stoychev                                                    
                                                                 
  APM, various basis sets, CI-OPT, improved COSX, DLPNO-Multilevel,           
  DOCKER, DRACO, updates on ESD, Fragmentator, GOAT, IRC, LR-CPCM, L-BFGS, MBIS, meta-GGA TD-DFT gradient, ML-optimized integration grids, 
  MM, NACMEs, nearIR, NEB, NEB-TS, NL-DFT gradient (VV10), 2- and 3-layer-ONIOM, interface openCOSMO-RS, QMMM,   
  Crystal-QMMM, RESP, rigid body optimization, SF, symmetry and pop. for TD-DFT, various functionals, SOLVATOR                                   
                                                                         
[Other institutions]                                                     
  V. Asgeirsson          : NEB                                           
  Christoph Bannwarth    : sTDA-DFT, sTD-DFT, PBEh-3c, B97-3c, D3        
  Giovanni Bistoni       : ETS/NOCV, ADLD/ADEX, COVALED                  
  Martin Brehm           : Molecular dynamics                            
  Ronald Cardenas        : ETS/NOCV                                      
  Martina Colucci        : COVALED                                       
  Sebastian Ehlert       : rSCAN, r2SCAN, r2SCAN-3c, D4, dhf basis sets  
  Marvin Friede          : D4 for Fr, Ra, Ac-Lr                          
  Lars Goerigk           : TD-DFT with DH, B97 family of functionals     
  Stefan Grimme          : VdW corrections, initial TS optimization, DFT functionals, gCP, sTDA/sTD-DF 
  Waldemar Hujo          : DFT-NL                                        
  H. Jonsson             : NEB                                           
  Holger Kruse           : gCP                                           
  Marcel Mueller         : wB97X-3c, vDZP basis set                      
  Hagen Neugebauer       : wr2SCAN, Native XTB                           
  Gianluca Regni         : ADLD/ADEX                                     
  Tobias Risthaus        : pre 6.0 range-separated hybrid DFT and stability analysis
  Lukas Wittmann         : regularized MP2, r2SCAN double-hybrids, wr2SCAN        
                                                                         
We gratefully acknowledge several colleagues who have allowed us to      
interface, adapt or use parts of their codes:                            
  Ed Valeev, F. Pavosevic, A. Kumar             : LibInt (2-el integral package), F12 methods 
  Garnet Chan, S. Sharma, J. Yang, R. Olivares  : DMRG                   
  Ulf Ekstrom                                   : XCFun DFT Library      
  Mihaly Kallay                                 : mrcc  (arbitrary order and MRCC methods)
  Frank Weinhold                                : gennbo (NPA and NBO analysis)           
  Simon Mueller                                 : openCOSMO-RS                            
  Christopher J. Cramer and Donald G. Truhlar   : smd solvation model                     
  S Lehtola, MJT Oliveira, MAL Marques          : LibXC Library                           
  Liviu Ungur et al                             : ANISO software                          


 Your calculation uses the libint2 library for the computation of 2-el integrals
 For citations please refer to: http://libint.valeyev.net

 Your ORCA version has been built with support for libXC version: 7.0.0
 For citations please refer to: https://libxc.gitlab.io

 This ORCA versions uses:
   CBLAS   interface :  Fast vector & matrix operations
   LAPACKE interface :  Fast linear algebra routines
   SCALAPACK package :  Parallel linear algebra routines
   Shared memory     :  Shared parallel matrices
   BLAS/LAPACK       :  OpenBLAS 0.3.29  USE64BITINT DYNAMIC_ARCH NO_AFFINITY Zen SINGLE_THREADED
        Core in use  :  Zen
   Copyright (c) 2011-2014, The OpenBLAS Project


  ***********************************
  * Starting time: Fri Nov  7 13:16:51 2025
  * Host name:     nid005660
  * Process ID:    1544545
  * Working dir.:  /pscratch/sd/b/brdyer/runs/dipole_paper/quad_and_dip/pbe_orca/water
  ***********************************

NOTE: MaxCore=10000 MB was set to SCF,MP2,MDCI,CIPSI,MRCI,RASCI and CIS
      => If you want to overwrite this, your respective input block should be placed after the MaxCore statement
Warning: RI is on but no J-basis has been assigned. Assigning Def2/J (nothing to worry about!)
================================================================================

----- Orbital basis set information -----
Your calculation utilizes the basis: def2-QZVPPD
   F. Weigend and R. Ahlrichs, Phys. Chem. Chem. Phys. 7, 3297 (2005).
   D. Rappoport and F. Furche, J. Chem. Phys. 133, 134105 (2010)
   D. Rappoport, J. Chem. Phys. 155, 124102 (2021).

----- AuxJ basis set information -----
Your calculation utilizes the auxiliary basis: def2/J
   H-Rn: F. Weigend, Phys. Chem. Chem. Phys. 8, 1057 (2006).
   Fr-Lr: K. Eichkorn, F. Weigend, O. Treutler, R. Ahlrichs; Theor. Chem. Acc. 97, 119 (1997).

================================================================================
                                        WARNINGS
                       Please study these warnings very carefully!
================================================================================


================================================================================
                                       INPUT FILE
================================================================================
NAME = water.inp
|  1> !PBE def2-QZVPPD LargePrint VeryTightSCF DEFGRID3
|  2> %elprop
|  3>     Quadrupole True
|  4>     Dipole True
|  5> end
|  6> %MaxCore 10000
|  7> %pal
|  8>     nprocs 48
|  9> end
| 10> * xyz 0 1
| 11>     O     -0.0014836099    0.3893682379    0.0000000000
| 12>     H      0.7609527177   -0.1917875511    0.0000000000
| 13>     H     -0.7594691078   -0.1975806868    0.0000000000
| 14> *
| 15> 
| 16> 
| 17>                          ****END OF INPUT****
================================================================================

                       ****************************
                       * Single Point Calculation *
                       ****************************

---------------------------------
CARTESIAN COORDINATES (ANGSTROEM)
---------------------------------
  O     -0.001484    0.389368    0.000000
  H      0.760953   -0.191788    0.000000
  H     -0.759469   -0.197581    0.000000

----------------------------
CARTESIAN COORDINATES (A.U.)
----------------------------
  NO LB      ZA    FRAG     MASS         X           Y           Z
   0 O     8.0000    0    15.999   -0.002804    0.735799    0.000000
   1 H     1.0000    0     1.008    1.437992   -0.362426    0.000000
   2 H     1.0000    0     1.008   -1.435189   -0.373373    0.000000

--------------------------------
INTERNAL COORDINATES (ANGSTROEM)
--------------------------------
 O      0   0   0     0.000000000000     0.00000000     0.00000000
 H      1   0   0     0.958671583355     0.00000000     0.00000000
 H      1   2   0     0.958671505383   104.93153098     0.00000000

---------------------------
INTERNAL COORDINATES (A.U.)
---------------------------
 O      0   0   0     0.000000000000     0.00000000     0.00000000
 H      1   0   0     1.811626744914     0.00000000     0.00000000
 H      1   2   0     1.811626597568   104.93153098     0.00000000

---------------------
BASIS SET INFORMATION
---------------------
There are 2 groups of distinct atoms

 Group   1 Type O   : 16s9p4d2f1g contracted to 8s5p4d2f1g pattern {82111111/51111/1111/11/1}
 Group   2 Type H   : 7s4p2d1f contracted to 4s4p2d1f pattern {4111/1111/11/1}

Atom   0O    basis set group =>   1
Atom   1H    basis set group =>   2
Atom   2H    basis set group =>   2

-------------------------
BASIS SET IN INPUT FORMAT
-------------------------

 # Basis set for element : H 
 NewGTO H 
 S 4 
   1     190.6916900000      0.0053426372
   2      28.6055320000      0.0412523382
   3       6.5095943000      0.2109935257
   4       1.8412455000      0.8121285458
 S 1 
   1       0.5985372500      1.0000000000
 S 1 
   1       0.2139762400      1.0000000000
 S 1 
   1       0.0803162860      1.0000000000
 P 1 
   1       2.2920000000      1.0000000000
 P 1 
   1       0.8380000000      1.0000000000
 P 1 
   1       0.2920000000      1.0000000000
 D 1 
   1       2.0620000000      1.0000000000
 D 1 
   1       0.6620000000      1.0000000000
 F 1 
   1       1.3970000000      1.0000000000
 P 1 
   1       0.0840631992      1.0000000000
  end;

 # Basis set for element : O 
 NewGTO O 
 S 8 
   1  116506.4690800000      0.0000719877
   2   17504.3497240000      0.0005571488
   3    3993.4513230000      0.0029130031
   4    1133.0063186000      0.0121720511
   5     369.9956959400      0.0430037618
   6     133.6207434900      0.1296476240
   7      52.0356436490      0.3196960856
   8      21.4619393130      0.5893145880
 S 2 
   1      89.8350512520      0.0948480528
   2      26.4280108440      0.9253637879
 S 1 
   1       9.2822824649      1.0000000000
 S 1 
   1       4.0947728533      1.0000000000
 S 1 
   1       1.3255349078      1.0000000000
 S 1 
   1       0.5187723079      1.0000000000
 S 1 
   1       0.1977267645      1.0000000000
 P 5 
   1     191.1525581000      0.0025359574
   2      45.2333567390      0.0202338243
   3      14.3534659220      0.0945180200
   4       5.2422371832      0.3091543280
   5       2.0792418599      0.6846894953
 P 1 
   1       0.8428237142      1.0000000000
 P 1 
   1       0.3361769489      1.0000000000
 P 1 
   1       0.1286399797      1.0000000000
 D 1 
   1       3.7750000000      1.0000000000
 D 1 
   1       1.3000000000      1.0000000000
 D 1 
   1       0.4440000000      1.0000000000
 F 1 
   1       2.6660000000      1.0000000000
 F 1 
   1       0.8590000000      1.0000000000
 G 1 
   1       1.8460000000      1.0000000000
 S 1 
   1       0.0696385351      1.0000000000
 P 1 
   1       0.0435981628      1.0000000000
 D 1 
   1       0.1254637869      1.0000000000
  end;

---------------------------------
AUXILIARY/J BASIS SET INFORMATION
---------------------------------
There are 2 groups of distinct atoms

 Group   1 Type O   : 12s5p4d2f1g contracted to 6s4p3d1f1g pattern {711111/2111/211/2/1}
 Group   2 Type H   : 5s2p1d contracted to 3s1p1d pattern {311/2/1}

Atom   0O    basis set group =>   1
Atom   1H    basis set group =>   2
Atom   2H    basis set group =>   2

-------------------------------------
AUXILIARY/J BASIS SET IN INPUT FORMAT
-------------------------------------

 # Auxiliary/J basis set for element : H 
 NewAuxJGTO H 
 S 3 
   1      15.6752927000      0.1007184237
   2       3.6063578000      0.3404257499
   3       1.2080016000      0.6491996172
 S 1 
   1       0.4726794000      1.0000000000
 S 1 
   1       0.2018100000      1.0000000000
 P 2 
   1       2.0281365000      0.5596620919
   2       0.5358730000      0.5596620919
 D 1 
   1       2.2165124000      1.0000000000
  end;

 # Auxiliary/J basis set for element : O 
 NewAuxJGTO O 
 S 7 
   1    2876.8216605000      0.0168151159
   2    1004.7443032000      0.0340137548
   3     369.7579954000      0.1194951309
   4     142.9442404000      0.2664627624
   5      57.8366425000      0.4202764046
   6      24.3864983000      0.2765077335
   7      10.6622662000      0.0057008815
 S 1 
   1       4.8070437000     -1.0000000000
 S 1 
   1       2.2210770000      1.0000000000
 S 1 
   1       1.0447795000      1.0000000000
 S 1 
   1       0.4968425000      1.0000000000
 S 1 
   1       0.2371384000      1.0000000000
 P 2 
   1      64.2613382000     -0.2731534179
   2      16.3006076000     -0.8168011598
 P 1 
   1       4.3550542000      1.0000000000
 P 1 
   1       1.2019554000      1.0000000000
 P 1 
   1       0.3354196000      1.0000000000
 D 2 
   1       9.2146611000     -0.4661230638
   2       2.8435251000     -0.6600908911
 D 1 
   1       0.9955759000     -1.0000000000
 D 1 
   1       0.3649441000     -1.0000000000
 F 2 
   1       2.6420115000      0.5931563945
   2       0.7345613000      0.5931563945
 G 1 
   1       1.3931000000     -1.0000000000
  end;



           ************************************************************
           *        Program running with 48 parallel MPI-processes    *
           *              working on a common directory               *
           ************************************************************
------------------------------------------------------------------------------
                             ORCA STARTUP CALCULATIONS
                           -- RI-GTO INTEGRALS CHOSEN --
------------------------------------------------------------------------------
------------------------------------------------------------------------------
                   ___                                                        
                  /   \      - P O W E R E D   B Y -                         
                 /     \                                                     
                 |  |  |   _    _      __       _____    __    __             
                 |  |  |  | |  | |    /  \     |  _  \  |  |  /  |          
                  \  \/   | |  | |   /    \    | | | |  |  | /  /          
                 / \  \   | |__| |  /  /\  \   | |_| |  |  |/  /          
                |  |  |   |  __  | /  /__\  \  |    /   |      \           
                |  |  |   | |  | | |   __   |  |    \   |  |\   \          
                \     /   | |  | | |  |  |  |  | |\  \  |  | \   \       
                 \___/    |_|  |_| |__|  |__|  |_| \__\ |__|  \__/        
                                                                              
                      - O R C A' S   B I G   F R I E N D -                    
                                      &                                       
                       - I N T E G R A L  F E E D E R -                       
                                                                              
 v1 FN, 2020, v2 2021, v3 2022-2024                                           
------------------------------------------------------------------------------


----------------------
SHARK INTEGRAL PACKAGE
----------------------

Number of atoms                             ...      3
Number of basis functions                   ...    132
Number of shells                            ...     42
Maximum angular momentum                    ...      4
Integral batch strategy                     ... SHARK/LIBINT Hybrid
RI-J (if used) integral strategy            ... SPLIT-RIJ (Revised 2003 algorithm where possible)
Printlevel                                  ...      1
Contraction scheme used                     ... SEGMENTED contraction
Prescreening option                         ... SCHWARTZ
   Thresh                                   ... 1.000e-12
   Tcut                                     ... 1.000e-14
   Tpresel                                  ... 1.000e-14 
Coulomb Range Separation                    ... NOT USED
Exchange Range Separation                   ... NOT USED
Multipole approximations                    ... NOT USED
Finite Nucleus Model                        ... NOT USED
CABS basis                                  ... NOT available
Auxiliary Coulomb fitting basis             ... AVAILABLE
   # of basis functions in Aux-J            ...     71
   # of shells in Aux-J                     ...     25
   Maximum angular momentum in Aux-J        ...      4
Auxiliary J/K fitting basis                 ... NOT available
Auxiliary Correlation fitting basis         ... NOT available
Auxiliary 'external' fitting basis          ... NOT available

Checking pre-screening integrals            ... done (  0.0 sec) Dimension = 42
   => SHARK Basis and OBASIS are compatible. Storing Pre-screening
Shell pair information
Shell pair cut-off parameter TPreSel        ...   1.0e-14
Total number of shell pairs                 ...       903
Shell pairs after pre-screening             ...       903
Total number of primitive shell pairs       ...      1881
Primitive shell pairs kept                  ...      1823
          la=0 lb=0:    136 shell pairs
          la=1 lb=0:    208 shell pairs
          la=1 lb=1:     91 shell pairs
          la=2 lb=0:    128 shell pairs
          la=2 lb=1:    104 shell pairs
          la=2 lb=2:     36 shell pairs
          la=3 lb=0:     64 shell pairs
          la=3 lb=1:     52 shell pairs
          la=3 lb=2:     32 shell pairs
          la=3 lb=3:     10 shell pairs
          la=4 lb=0:     16 shell pairs
          la=4 lb=1:     13 shell pairs
          la=4 lb=2:      8 shell pairs
          la=4 lb=3:      4 shell pairs
          la=4 lb=4:      1 shell pairs

Checking whether 4 symmetric matrices of dimension 132 fit in memory
:Max Core in MB      =  10000.00
 MB in use           =      4.30
 MB left             =   9995.70
 MB needed           =      0.27
 Data fit in memory  = YES
Calculating RI/J V-Matrix + Cholesky decomp.... done (  0.1 sec)
Calculating Nuclear repulsion               ... done (  0.0 sec) ENN=      9.179885496208 Eh

Diagonalization of the overlap matrix:
Smallest eigenvalue                        ... 1.327e-04
Time for diagonalization                   ...    0.002 sec
Threshold for overlap eigenvalues          ... 1.000e-07
Number of eigenvalues below threshold      ... 0
Time for construction of square roots      ...    0.003 sec
Total time needed                          ...    0.010 sec

-------------------
DFT GRID GENERATION
-------------------

General Integration Accuracy     IntAcc      ... 4.959
Radial Grid Type                 RadialGrid  ... OptM3 with GC (2021)
Angular Grid (max. ang.)         AngularGrid ... 6 (Lebedev-590)
Angular grid pruning method      GridPruning ... 4 (adaptive)
Weight generation scheme         WeightScheme... mBecke (2022)
Basis function cutoff            BFCut       ... 1.0000e-12
Integration weight cutoff        WCut        ... 1.0000e-14
Partially contracted basis set               ... off
Rotationally invariant grid construction     ... off
Angular grids for H and He will be reduced by one unit
Diffuse basis detected: some atoms will have their outermost
                        angular grid increased by 1.

Total number of grid points                  ...    35277
Total number of batches                      ...      553
Average number of points per batch           ...       63
Average number of grid points per atom       ...    11759
Grids setup in   0.3 sec
Initializing property integral containers    ... done (  0.0 sec)

SHARK setup successfully completed in   0.6 seconds

Maximum memory used throughout the entire STARTUP-calculation: 26.0 MB


           ************************************************************
           *        Program running with 48 parallel MPI-processes    *
           *              working on a common directory               *
           ************************************************************
-------------------------------------------------------------------------------
                                 ORCA GUESS
                   Start orbitals & Density for SCF / CASSCF
-------------------------------------------------------------------------------

------------
SCF SETTINGS
------------
Hamiltonian:
 Density Functional     Method          .... DFT(GTOs)
 Exchange Functional    Exchange        .... PBE
   PBE kappa parameter   XKappa         ....  0.804000
   PBE mue parameter    XMuePBE         ....  0.219520
 Correlation Functional Correlation     .... PBE
   PBE beta parameter  CBetaPBE         ....  0.066725
 LDA part of GGA corr.  LDAOpt          .... PW91-LDA
 Gradients option       PostSCFGGA      .... off
   NL short-range parameter             ....  6.400000
 RI-approximation to the Coulomb term is turned on
   Number of AuxJ basis functions       .... 71


General Settings:
 Integral files         IntName         .... water
 Hartree-Fock type      HFTyp           .... RHF
 Total Charge           Charge          ....    0
 Multiplicity           Mult            ....    1
 Number of Electrons    NEL             ....   10
 Basis Dimension        Dim             ....  132
 Nuclear Repulsion      ENuc            ....      9.1798854962 Eh

Convergence Acceleration:
 AO-DIIS                CNVDIIS         .... on
   Start iteration      DIISMaxIt       ....    12
   Startup error        DIISStart       ....  0.200000
   # of expansion vecs  DIISMaxEq       ....     5
   Bias factor          DIISBfac        ....   1.050
   Max. coefficient     DIISMaxC        ....  10.000
 MO-DIIS                CNVKDIIS        .... off
 Trust-Rad. Augm. Hess. CNVTRAH         .... auto
   Auto Start mean grad. ratio tolernc. ....  1.125000
   Auto Start start iteration           ....    50
   Auto Start num. interpolation iter.  ....    10
   Max. Number of Micro iterations      ....    24
   Max. Number of Macro iterations      .... Maxiter - #DIIS iter
   Number of Davidson start vectors     ....     2
   Converg. threshold    (grad. norm)   ....   2.000e-06
   Grad. Scal. Fac. for Micro threshold ....   0.100
   Minimum threshold for Micro iter.    ....   1.000e-02
   NR start threshold (gradient norm)   ....   1.000e-04
   Initial trust radius                 ....   0.400
   Minimum AH scaling param. (alpha)    ....   1.000
   Maximum AH scaling param. (alpha)    .... 1000.000
   Quad. conv. algorithm                .... NR
   White noise on init. David. guess    .... on
   Maximum white noise                  ....   0.010
   Pseudo random numbers                .... off
   Inactive MOs                         .... canonical
   Orbital update algorithm             .... Taylor
   Preconditioner                       .... Diag
   Full preconditioner red. dimension   ....   250
 SOSCF                 CNVSOSCF           .... on
   Start iteration     SOSCFMaxIt         ....   150
   Startup grad/error  SOSCFStart         ....  0.003300
   Hessian update      SOSCFHessUp        .... L-BFGS
   Autom. constraints  SOSCFAutoConstrain .... off
 Level Shifting         CNVShift        .... on
   Level shift para.    LevelShift      ....    0.2500
   Turn off err/grad.   ShiftErr        ....    0.0010
 Zerner damping         CNVZerner       .... off
 Static damping         CNVDamp         .... on
   Fraction old density DampFac         ....    0.7000
   Max. Damping (<1)    DampMax         ....    0.9800
   Min. Damping (>=0)   DampMin         ....    0.0000
   Turn off err/grad.   DampErr         ....    0.1000

SCF Procedure:
 Maximum # iterations   MaxIter         ....   125
 SCF integral mode      SCFMode         .... Direct
   Integral package                     .... SHARK and LIBINT hybrid scheme
 Reset frequency        DirectResetFreq ....    20
 Integral Threshold     Thresh          ....  1.000e-12 Eh
 Primitive CutOff       TCut            ....  1.000e-14 Eh

Convergence Tolerance:
 Convergence Check Mode ConvCheckMode   .... Total+1el-Energy
 Convergence forced     ConvForced      .... 0
 Energy Change          TolE            ....  1.000e-09 Eh
 1-El. energy change                    ....  1.000e-06 Eh
 Orbital Gradient       TolG            ....  2.000e-06
 Orbital Rotation angle TolX            ....  2.000e-06
 DIIS Error             TolErr          ....  1.000e-08

------------------------------
INITIAL GUESS: MODEL POTENTIAL
------------------------------
Loading Hartree-Fock densities                     ... done
Calculating cut-offs                               ... done
Initializing the effective Hamiltonian             ... done
Setting up the integral package (SHARK)            ... done
Starting the Coulomb interaction                   ... done (   0.0 sec)
Making the grid                                    ... done (   0.1 sec)
Mapping shells                                     ... done
Starting the XC term evaluation                    ... done (   0.0 sec)
  promolecular density results
     # of electrons  =      9.999214611
     EX              =     -8.731049268
     EC              =     -0.316217570
     EX+EC           =     -9.047266838
Transforming the Hamiltonian                       ... done (   0.0 sec)
Diagonalizing the Hamiltonian                      ... done (   0.0 sec)
Back transforming the eigenvectors                 ... done (   0.0 sec)
Now organizing SCF variables                       ... done
                      ------------------
                      INITIAL GUESS DONE (   0.2 sec)
                      ------------------
----------------------
INITIAL GUESS ORBITALS
----------------------
                      0         1         2         3         4         5   
                 -18.97709  -1.06721  -0.60069  -0.48311  -0.41018  -0.04583
                   2.00000   2.00000   2.00000   2.00000   2.00000   0.00000
                  --------  --------  --------  --------  --------  --------
  0O   1s        -0.564730 -0.123621 -0.000000 -0.039535  0.000000  0.042178
  0O   2s         0.005555 -0.018593  0.000001 -0.006094 -0.000000  0.006342
  0O   3s        -0.358466 -0.144290 -0.000005 -0.047571  0.000000  0.052576
  0O   4s        -0.173382 -0.077882  0.000011 -0.023448 -0.000000  0.024100
  0O   5s        -0.013681  0.315572 -0.000027  0.096217  0.000000 -0.122662
  0O   6s         0.005584  0.493678  0.000048  0.229193 -0.000000 -0.266675
  0O   7s         0.000313  0.173311  0.000199  0.210934 -0.000000  0.581535
  0O   1pz       -0.000000  0.000000  0.000000  0.000000  0.384855  0.000000
  0O   1px       -0.000003  0.000233  0.325515 -0.001328  0.000000 -0.000403
  0O   1py        0.000967 -0.061610  0.001235  0.347622 -0.000000  0.106796
  0O   2pz        0.000000 -0.000000 -0.000000 -0.000000  0.355191 -0.000000
  0O   2px        0.000001  0.000231  0.285552 -0.001161 -0.000000 -0.000399
  0O   2py       -0.000832 -0.060911  0.001100  0.310474  0.000000  0.090603
  0O   3pz       -0.000000  0.000000 -0.000000  0.000000  0.310546 -0.000000
  0O   3px        0.000003  0.000170  0.199655 -0.000898 -0.000000  0.000113
  0O   3py       -0.001301 -0.031681  0.000675  0.238372  0.000000 -0.000465
  0O   4pz       -0.000000  0.000000  0.000000 -0.000000  0.124376  0.000000
  0O   4px       -0.000002  0.000084  0.038956 -0.000222 -0.000000  0.001662
  0O   4py        0.000233 -0.004502  0.000120  0.079390  0.000000 -0.448783
  0O   1dz2       0.000167 -0.001136 -0.000001  0.002012 -0.000000 -0.000716
  0O   1dxz       0.000000  0.000000  0.000000  0.000000  0.000001  0.000000
  0O   1dyz      -0.000000 -0.000000 -0.000000 -0.000000 -0.001616 -0.000000
  0O   1dx2y2    -0.000070  0.000147  0.000030  0.000775  0.000000  0.000523
  0O   1dxy      -0.000001 -0.000004 -0.004372  0.000004 -0.000000  0.000004
  0O   2dz2      -0.000144 -0.006576  0.000001  0.003528  0.000000 -0.002104
  0O   2dxz      -0.000000 -0.000000 -0.000000 -0.000000  0.000040 -0.000000
  0O   2dyz       0.000000  0.000000  0.000000  0.000000 -0.006495  0.000000
  0O   2dx2y2     0.000020  0.001917  0.000089  0.006052 -0.000000  0.005023
  0O   2dxy       0.000001  0.000025 -0.010790  0.000047  0.000000  0.000052
  0O   3dz2      -0.000575 -0.004923 -0.000019 -0.000448  0.000000 -0.040713
  0O   3dxz       0.000000 -0.000000  0.000000 -0.000000  0.000018 -0.000000
  0O   3dyz       0.000000 -0.000000  0.000000 -0.000000 -0.007969  0.000000
  0O   3dx2y2     0.000170  0.002377  0.000043  0.009602 -0.000000  0.013168
  0O   3dxy       0.000002 -0.000023 -0.005442  0.000025  0.000000  0.000067
  0O   1f0       -0.000000  0.000000  0.000000 -0.000000 -0.000924 -0.000000
  0O   1f+1       0.000000 -0.000000 -0.001039  0.000005 -0.000000  0.000003
  0O   1f-1      -0.000049  0.000696 -0.000003 -0.000781  0.000000 -0.000319
  0O   1f+2       0.000000 -0.000000  0.000000 -0.000000  0.000504 -0.000000
  0O   1f-2       0.000000 -0.000000  0.000000 -0.000000  0.000004  0.000000
  0O   1f+3       0.000001 -0.000010  0.000008  0.000007  0.000000 -0.000002
  0O   1f-3      -0.000094  0.000957  0.000001 -0.000673  0.000000 -0.000015
  0O   2f0        0.000000 -0.000000  0.000000  0.000000 -0.001679  0.000000
  0O   2f+1      -0.000000 -0.000009 -0.000863 -0.000005  0.000000 -0.000018
  0O   2f-1       0.000193  0.000949 -0.000002 -0.000068 -0.000000  0.003860
  0O   2f+2      -0.000000 -0.000000 -0.000000 -0.000000  0.000082 -0.000000
  0O   2f-2      -0.000000  0.000000 -0.000000  0.000000 -0.000003  0.000000
  0O   2f+3      -0.000004 -0.000015 -0.000631 -0.000002 -0.000000 -0.000070
  0O   2f-3       0.000303  0.002267 -0.000002  0.002294 -0.000000  0.006151
  0O   1g0        0.000014  0.000165 -0.000001  0.000020 -0.000000  0.000256
  0O   1g+1      -0.000000  0.000000  0.000000  0.000000 -0.000001  0.000000
  0O   1g-1      -0.000000  0.000000 -0.000000  0.000000  0.000284 -0.000000
  0O   1g+2       0.000005 -0.000005  0.000001 -0.000273  0.000000 -0.000241
  0O   1g-2       0.000000  0.000002  0.000076 -0.000000  0.000000 -0.000003
  0O   1g+3       0.000000  0.000000  0.000000  0.000000 -0.000005  0.000000
  0O   1g-3      -0.000000 -0.000000 -0.000000 -0.000000  0.000346 -0.000000
  0O   1g+4       0.000027  0.000214 -0.000003 -0.000070 -0.000000  0.000223
  0O   1g-4       0.000000 -0.000000  0.000327 -0.000007 -0.000000  0.000005
  0O   8s        -0.001561  0.007841 -0.000028  0.020711 -0.000000  3.320364
  0O   5pz       -0.000000 -0.000000  0.000000 -0.000000  0.006327 -0.000000
  0O   5px       -0.000000  0.000006 -0.000956  0.000001 -0.000000  0.001017
  0O   5py        0.000075  0.000256  0.000002  0.003146  0.000000 -0.275025
  0O   4dz2       0.000049 -0.000470 -0.000010 -0.000512  0.000000 -0.091380
  0O   4dxz      -0.000000 -0.000000 -0.000000 -0.000000  0.000025 -0.000000
  0O   4dyz       0.000000 -0.000000 -0.000000  0.000000 -0.002735 -0.000000
  0O   4dx2y2    -0.000062  0.000462 -0.000009  0.001690 -0.000000  0.045721
  0O   4dxy      -0.000000 -0.000007  0.001541  0.000008  0.000000  0.000367
  1H   1s         0.000034  0.051525  0.078097 -0.045800 -0.000000  0.029278
  1H   2s        -0.001363  0.073515  0.150656 -0.101744  0.000000  0.043413
  1H   3s        -0.000748  0.020317  0.114787 -0.098359  0.000000 -0.270300
  1H   4s         0.001012 -0.002996  0.026935 -0.009143  0.000000 -1.211571
  1H   1pz       -0.000000 -0.000000 -0.000000 -0.000000  0.003742 -0.000000
  1H   1px       -0.000023 -0.005493 -0.003563  0.003775  0.000000  0.003364
  1H   1py       -0.000007  0.003843  0.004766  0.000590 -0.000000 -0.001791
  1H   2pz        0.000000  0.000000  0.000000  0.000000  0.015247  0.000000
  1H   2px        0.000544 -0.009680 -0.013745  0.018867 -0.000000  0.024667
  1H   2py       -0.000335  0.005091  0.018362 -0.001626  0.000000 -0.015855
  1H   3pz       -0.000000 -0.000000 -0.000000  0.000000  0.019726  0.000000
  1H   3px        0.000393 -0.004003 -0.008477  0.019406 -0.000000  0.122532
  1H   3py       -0.000264  0.001336  0.014477  0.002072  0.000000 -0.078248
  1H   1dz2       0.000013 -0.001082 -0.001511  0.001008 -0.000000  0.000653
  1H   1dxz      -0.000000 -0.000000 -0.000000 -0.000000 -0.001702 -0.000000
  1H   1dyz       0.000000  0.000000  0.000000  0.000000  0.001216  0.000000
  1H   1dx2y2    -0.000013  0.000708 -0.000222 -0.001922 -0.000000 -0.000607
  1H   1dxy       0.000021 -0.001675 -0.002900  0.001273 -0.000000  0.000723
  1H   2dz2       0.000063 -0.000652 -0.003062  0.002953 -0.000000  0.005697
  1H   2dxz       0.000000  0.000000 -0.000000 -0.000000 -0.004961 -0.000000
  1H   2dyz      -0.000000  0.000000  0.000000  0.000000  0.003783  0.000000
  1H   2dx2y2    -0.000070  0.001240 -0.000893 -0.004998  0.000000 -0.004304
  1H   2dxy       0.000060 -0.000449 -0.005955  0.003012 -0.000000  0.010767
  1H   1f0       -0.000000 -0.000000 -0.000000 -0.000000 -0.000953 -0.000000
  1H   1f+1       0.000018  0.000238  0.000773 -0.000718  0.000000 -0.000557
  1H   1f-1      -0.000026 -0.000126 -0.000768  0.000221 -0.000000  0.000540
  1H   1f+2      -0.000000 -0.000000 -0.000000 -0.000000  0.000313  0.000000
  1H   1f-2       0.000000 -0.000000 -0.000000 -0.000000 -0.001144 -0.000000
  1H   1f+3      -0.000036  0.000120 -0.001055 -0.000522 -0.000000 -0.000027
  1H   1f-3      -0.000029 -0.000270 -0.001027  0.001148 -0.000000  0.000822
  1H   4pz        0.000000  0.000000 -0.000000 -0.000000  0.004033  0.000000
  1H   4px       -0.000189  0.001322 -0.002420 -0.000442 -0.000000  0.371685
  1H   4py        0.000197 -0.001251  0.002180  0.003291  0.000000 -0.312004
  2H   1s         0.000034  0.051527 -0.078097 -0.045803 -0.000000  0.029281
  2H   2s        -0.001368  0.073566 -0.150698 -0.101667  0.000000  0.043482
  2H   3s        -0.000753  0.020468 -0.115035 -0.098271  0.000000 -0.270344
  2H   4s         0.001012 -0.002856 -0.026887 -0.008898  0.000000 -1.211534
  2H   1pz       -0.000000 -0.000000 -0.000000  0.000000  0.003743 -0.000000
  2H   1px        0.000023  0.005463 -0.003527 -0.003785  0.000000 -0.003347
  2H   1py       -0.000006  0.003885 -0.004794  0.000563  0.000000 -0.001808
  2H   2pz        0.000000 -0.000000  0.000000 -0.000000  0.015248  0.000000
  2H   2px       -0.000544  0.009657 -0.013615 -0.018805  0.000000 -0.024558
  2H   2py       -0.000341  0.005162 -0.018477 -0.001776  0.000000 -0.016073
  2H   3pz        0.000000 -0.000000 -0.000000 -0.000000  0.019727  0.000000
  2H   3px       -0.000393  0.004035 -0.008443 -0.019388  0.000000 -0.121972
  2H   3py       -0.000268  0.001392 -0.014584  0.001927  0.000000 -0.079120
  2H   1dz2       0.000013 -0.001081  0.001510  0.001006 -0.000000  0.000653
  2H   1dxz       0.000000  0.000000  0.000000  0.000000  0.001694 -0.000000
  2H   1dyz       0.000000 -0.000000  0.000000 -0.000000  0.001230 -0.000000
  2H   1dx2y2    -0.000012  0.000686  0.000266 -0.001899  0.000000 -0.000594
  2H   1dxy      -0.000022  0.001683 -0.002896 -0.001302  0.000000 -0.000734
  2H   2dz2       0.000064 -0.000653  0.003066  0.002953 -0.000000  0.005725
  2H   2dxz       0.000000 -0.000000  0.000000 -0.000000  0.004937  0.000000
  2H   2dyz       0.000000 -0.000000 -0.000000 -0.000000  0.003823  0.000000
  2H   2dx2y2    -0.000069  0.001244  0.000986 -0.004914  0.000000 -0.004168
  2H   2dxy      -0.000062  0.000467 -0.005947 -0.003088  0.000000 -0.010857
  2H   1f0       -0.000000  0.000000 -0.000000  0.000000 -0.000956 -0.000000
  2H   1f+1      -0.000017 -0.000237  0.000765  0.000714 -0.000000  0.000558
  2H   1f-1      -0.000026 -0.000126  0.000773  0.000226 -0.000000  0.000551
  2H   1f+2      -0.000000 -0.000000  0.000000 -0.000000  0.000297  0.000000
  2H   1f-2      -0.000000 -0.000000  0.000000 -0.000000  0.001155  0.000000
  2H   1f+3       0.000037 -0.000121 -0.001081  0.000487  0.000000  0.000011
  2H   1f-3      -0.000028 -0.000276  0.001002  0.001158 -0.000000  0.000830
  2H   4pz       -0.000000 -0.000000 -0.000000  0.000000  0.004062 -0.000000
  2H   4px        0.000187 -0.001287 -0.002390  0.000468  0.000000 -0.369211
  2H   4py        0.000199 -0.001233 -0.002193  0.003338  0.000000 -0.314841
                      6         7         8         9        10        11   
                   0.01397   0.04874   0.05142   0.09326   0.12439   0.14843
                   0.00000   0.00000   0.00000   0.00000   0.00000   0.00000
                  --------  --------  --------  --------  --------  --------
  0O   1s         0.000000  0.014015 -0.000000  0.000001  0.010851 -0.012174
  0O   2s         0.000001  0.002376  0.000000  0.000001  0.002630 -0.002776
  0O   3s        -0.000003  0.016688 -0.000000 -0.000001  0.010270 -0.012198
  0O   4s         0.000009  0.010618 -0.000000  0.000009  0.017107 -0.016605
  0O   5s        -0.000036 -0.057572  0.000000 -0.000055 -0.073460  0.051571
  0O   6s         0.000089 -0.014810 -0.000000  0.000140  0.063830  0.090603
  0O   7s         0.000196  0.039815 -0.000000  0.000666 -1.414782  2.499616
  0O   1pz       -0.000000  0.000000  0.095800  0.000000  0.000000 -0.000000
  0O   1px        0.163052  0.000285  0.000000  0.112669 -0.000277  0.000450
  0O   1py        0.000619 -0.075738  0.000000  0.000430  0.074859 -0.115853
  0O   2pz        0.000000 -0.000000  0.104374 -0.000000  0.000000 -0.000000
  0O   2px        0.126452  0.000320 -0.000000  0.143389 -0.000320  0.000639
  0O   2py        0.000476 -0.088232  0.000000  0.000538  0.080569 -0.164023
  0O   3pz        0.000000  0.000000  0.072727 -0.000000  0.000000 -0.000000
  0O   3px        0.123440  0.000663 -0.000000  0.271375 -0.000746  0.001192
  0O   3py        0.000312 -0.127267  0.000000  0.000753  0.167130 -0.271336
  0O   4pz        0.000000 -0.000000  0.089550 -0.000000  0.000000 -0.000000
  0O   4px       -0.811510  0.000060  0.000000  1.473421 -0.003793  0.009620
  0O   4py       -0.003101  0.028044  0.000000  0.005595  0.959457 -2.468951
  0O   1dz2      -0.000000 -0.000599 -0.000000  0.000001 -0.000453  0.000118
  0O   1dxz      -0.000000  0.000000  0.000002 -0.000000  0.000000 -0.000000
  0O   1dyz       0.000000  0.000000 -0.000984 -0.000000  0.000000 -0.000000
  0O   1dx2y2    -0.000006 -0.000249 -0.000000 -0.000026  0.002642  0.000055
  0O   1dxy       0.000632 -0.000002 -0.000000  0.003205  0.000019  0.000000
  0O   2dz2      -0.000001 -0.001841  0.000000 -0.000008 -0.012546  0.007319
  0O   2dxz       0.000000 -0.000000 -0.000008  0.000000 -0.000000 -0.000000
  0O   2dyz      -0.000000  0.000000  0.003179  0.000000 -0.000000  0.000000
  0O   2dx2y2    -0.000061  0.002810  0.000000 -0.000058  0.008356  0.005452
  0O   2dxy       0.008355  0.000024  0.000000  0.008162  0.000071  0.000039
  0O   3dz2      -0.000031 -0.028344  0.000000 -0.000069  0.004681 -0.064722
  0O   3dxz      -0.000000 -0.000000  0.000041  0.000000 -0.000000  0.000000
  0O   3dyz      -0.000000 -0.000000 -0.023463  0.000000 -0.000000  0.000000
  0O   3dx2y2    -0.000324 -0.001920  0.000000  0.000013  0.082524  0.083444
  0O   3dxy       0.034093 -0.000089  0.000000 -0.000888  0.000706  0.000583
  0O   1f0       -0.000000  0.000000 -0.000012 -0.000000  0.000000 -0.000000
  0O   1f+1       0.000500 -0.000000  0.000000 -0.000177 -0.000003  0.000001
  0O   1f-1       0.000002  0.000342 -0.000000 -0.000001  0.000612 -0.000032
  0O   1f+2      -0.000000 -0.000000  0.000118  0.000000 -0.000000  0.000000
  0O   1f-2      -0.000000 -0.000000 -0.000001  0.000000 -0.000000  0.000000
  0O   1f+3      -0.000571 -0.000008 -0.000000 -0.000185 -0.000005  0.000008
  0O   1f-3      -0.000005  0.000652 -0.000000 -0.000003  0.000474 -0.000612
  0O   2f0       -0.000000 -0.000000 -0.002710  0.000000 -0.000000  0.000000
  0O   2f+1      -0.001017 -0.000019  0.000000  0.001247  0.000019 -0.000013
  0O   2f-1       0.000006  0.002416 -0.000000  0.000018 -0.002526  0.000875
  0O   2f+2       0.000000 -0.000000  0.000272 -0.000000  0.000000 -0.000000
  0O   2f-2       0.000000  0.000000  0.000019 -0.000000  0.000000 -0.000000
  0O   2f+3      -0.003665 -0.000028 -0.000000 -0.000729 -0.000136 -0.000189
  0O   2f-3      -0.000046  0.002407 -0.000000  0.000017  0.010483  0.016129
  0O   1g0       -0.000000  0.000242 -0.000000  0.000001  0.000150  0.000229
  0O   1g+1      -0.000000  0.000000  0.000001  0.000000  0.000000 -0.000000
  0O   1g-1       0.000000  0.000000  0.000395 -0.000000  0.000000 -0.000000
  0O   1g+2       0.000002  0.000139  0.000000  0.000001 -0.001109 -0.001301
  0O   1g-2      -0.000006  0.000001 -0.000000 -0.000152 -0.000011 -0.000009
  0O   1g+3      -0.000000  0.000000 -0.000006  0.000000 -0.000000  0.000000
  0O   1g-3       0.000000 -0.000000  0.000367 -0.000000  0.000000 -0.000000
  0O   1g+4      -0.000008  0.000372 -0.000000  0.000008 -0.000155 -0.000405
  0O   1g-4       0.000689  0.000007  0.000000 -0.000313 -0.000003 -0.000005
  0O   8s         0.000183 -1.443144 -0.000000 -0.000111-11.299584  9.806183
  0O   5pz        0.000000 -0.000000 -1.231742 -0.000000  0.000000 -0.000000
  0O   5px       -1.046362 -0.005415  0.000000  1.881188 -0.002595  0.008346
  0O   5py       -0.003938  1.436315 -0.000000  0.007198  0.677198 -2.160911
  0O   4dz2       0.000000  0.055734  0.000000 -0.000006  0.148301 -0.219024
  0O   4dxz       0.000000 -0.000000 -0.000264  0.000000  0.000000 -0.000000
  0O   4dyz      -0.000000  0.000000  0.086762  0.000000 -0.000000  0.000000
  0O   4dx2y2    -0.001603  0.055140 -0.000000  0.002828 -0.402272 -0.287525
  0O   4dxy       0.217372  0.000436 -0.000000 -0.373944 -0.003104 -0.002219
  1H   1s        -0.022730  0.004744 -0.000000 -0.041973  0.031581 -0.020124
  1H   2s        -0.070514  0.012585  0.000000 -0.111060  0.087575 -0.100989
  1H   3s         0.303248 -0.214904  0.000000 -1.011147  0.708226 -1.473565
  1H   4s         2.138585  1.114730  0.000000 -3.468703  5.954537 -5.120606
  1H   1pz        0.000000 -0.000000 -0.000756  0.000000  0.000000 -0.000000
  1H   1px       -0.001694 -0.003206  0.000000 -0.001845  0.003799  0.001197
  1H   1py        0.002485  0.002332  0.000000  0.001994  0.003137  0.006272
  1H   2pz       -0.000000  0.000000  0.000463  0.000000 -0.000000  0.000000
  1H   2px       -0.017668  0.020681 -0.000000 -0.000272  0.014438 -0.007855
  1H   2py        0.012977 -0.009568  0.000000  0.012173 -0.019668 -0.022003
  1H   3pz       -0.000000  0.000000 -0.035208  0.000000 -0.000000  0.000000
  1H   3px       -0.098657  0.020746 -0.000000  0.156798 -0.092829  0.348987
  1H   3py        0.074717 -0.001495  0.000000 -0.113647  0.109759 -0.128286
  1H   1dz2      -0.000266  0.000328 -0.000000 -0.000632  0.001119 -0.000651
  1H   1dxz       0.000000 -0.000000 -0.000255 -0.000000 -0.000000 -0.000000
  1H   1dyz      -0.000000  0.000000  0.000400  0.000000 -0.000000  0.000000
  1H   1dx2y2    -0.000470  0.000068  0.000000  0.000207 -0.000877  0.001111
  1H   1dxy      -0.000820  0.000085 -0.000000 -0.001259  0.001756 -0.001302
  1H   2dz2      -0.007985  0.005468 -0.000000  0.012446 -0.006836  0.016720
  1H   2dxz       0.000000 -0.000000  0.001515 -0.000000  0.000000 -0.000000
  1H   2dyz      -0.000000  0.000000 -0.000733  0.000000 -0.000000  0.000000
  1H   2dx2y2     0.006023 -0.002516  0.000000 -0.010429  0.015363  0.010714
  1H   2dxy      -0.010348  0.009788 -0.000000  0.023518 -0.000523  0.032429
  1H   1f0        0.000000 -0.000000  0.000285 -0.000000  0.000000 -0.000000
  1H   1f+1       0.001477 -0.000920  0.000000 -0.001904  0.000773 -0.000805
  1H   1f-1      -0.000669  0.000700  0.000000  0.000902 -0.000302  0.001918
  1H   1f+2      -0.000000 -0.000000 -0.000504 -0.000000  0.000000 -0.000000
  1H   1f-2       0.000000 -0.000000  0.000210 -0.000000  0.000000 -0.000000
  1H   1f+3      -0.000425  0.000170  0.000000  0.000456  0.001976  0.003667
  1H   1f-3      -0.001998  0.000804 -0.000000  0.002531  0.000020  0.001938
  1H   4pz       -0.000000  0.000000  0.122675  0.000000 -0.000000  0.000000
  1H   4px       -0.630901 -0.021750  0.000000  0.116007 -0.118162  1.243172
  1H   4py        0.453272 -0.018079  0.000000  0.087369  1.257010  0.421049
  2H   1s         0.022738  0.004743 -0.000000  0.041986  0.031591 -0.020122
  2H   2s         0.070424  0.012696  0.000000  0.110818  0.087376 -0.100931
  2H   3s        -0.303494 -0.214490  0.000000  1.010563  0.708189 -1.472993
  2H   4s        -2.138744  1.115356  0.000000  3.468806  5.953211 -5.119622
  2H   1pz        0.000000  0.000000 -0.000752 -0.000000  0.000000 -0.000000
  2H   1px       -0.001668  0.003190 -0.000000 -0.001827 -0.003822 -0.001245
  2H   1py       -0.002501  0.002351 -0.000000 -0.002006  0.003105  0.006249
  2H   2pz       -0.000000 -0.000000  0.000431  0.000000 -0.000000  0.000000
  2H   2px       -0.017630 -0.020589  0.000000 -0.000264 -0.014350  0.008034
  2H   2py       -0.013102 -0.009683  0.000000 -0.012238 -0.019788 -0.021871
  2H   3pz        0.000000  0.000000 -0.035238  0.000000 -0.000000  0.000000
  2H   3px       -0.098198 -0.020588  0.000000  0.155696  0.091955 -0.347802
  2H   3py       -0.075474 -0.001575  0.000000  0.114741  0.110358 -0.130931
  2H   1dz2       0.000268  0.000329 -0.000000  0.000637  0.001124 -0.000648
  2H   1dxz      -0.000000 -0.000000  0.000252  0.000000 -0.000000  0.000000
  2H   1dyz      -0.000000 -0.000000  0.000400  0.000000 -0.000000  0.000000
  2H   1dx2y2     0.000484  0.000069 -0.000000 -0.000186 -0.000854  0.001088
  2H   1dxy      -0.000814 -0.000083  0.000000 -0.001268 -0.001773  0.001320
  2H   2dz2       0.007994  0.005461 -0.000000 -0.012434 -0.006842  0.016693
  2H   2dxz      -0.000000 -0.000000 -0.001538  0.000000 -0.000000  0.000000
  2H   2dyz      -0.000000 -0.000000 -0.000762  0.000000 -0.000000  0.000000
  2H   2dx2y2    -0.005919 -0.002368 -0.000000  0.010040  0.015342  0.011219
  2H   2dxy      -0.010439 -0.009821  0.000000  0.023651  0.000744 -0.032249
  2H   1f0        0.000000  0.000000  0.000288 -0.000000  0.000000 -0.000000
  2H   1f+1       0.001473  0.000917 -0.000000 -0.001897 -0.000771  0.000790
  2H   1f-1       0.000681  0.000707 -0.000000 -0.000915 -0.000309  0.001920
  2H   1f+2      -0.000000 -0.000000 -0.000502  0.000000 -0.000000  0.000000
  2H   1f-2      -0.000000 -0.000000 -0.000223  0.000000 -0.000000  0.000000
  2H   1f+3      -0.000464 -0.000190  0.000000  0.000515 -0.001974 -0.003714
  2H   1f-3       0.001988  0.000804 -0.000000 -0.002519 -0.000020  0.001857
  2H   4pz       -0.000000  0.000000  0.122813  0.000000 -0.000000  0.000000
  2H   4px       -0.627375  0.022060  0.000000  0.116600  0.108087 -1.246126
  2H   4py       -0.458155 -0.017658  0.000000 -0.086531  1.257796  0.411922
                     12        13        14        15        16        17   
                   0.15327   0.17118   0.19269   0.21147   0.26898   0.28701
                   0.00000   0.00000   0.00000   0.00000   0.00000   0.00000
                  --------  --------  --------  --------  --------  --------
  0O   1s        -0.000000  0.000000 -0.000011 -0.036691  0.000006  0.000003
  0O   2s        -0.000000  0.000000 -0.000004 -0.007781  0.000001  0.000000
  0O   3s        -0.000000 -0.000000 -0.000008 -0.039095  0.000009  0.000003
  0O   4s         0.000000  0.000000 -0.000022 -0.042509 -0.000002  0.000005
  0O   5s        -0.000000 -0.000000  0.000064  0.185092  0.000023 -0.000041
  0O   6s         0.000000  0.000000 -0.000080 -0.204469 -0.000163 -0.000004
  0O   7s         0.000000  0.000000  0.001557  2.676301 -0.000580  0.000113
  0O   1pz       -0.000015 -0.065004 -0.000000  0.000000 -0.000000  0.000000
  0O   1px        0.000000  0.000000 -0.129372  0.000234 -0.081952  0.082607
  0O   1py       -0.000000  0.000000 -0.000524 -0.052629 -0.000323  0.000307
  0O   2pz       -0.000049 -0.103135  0.000000  0.000000  0.000000  0.000000
  0O   2px       -0.000000  0.000000 -0.221647  0.000117 -0.054081 -0.002535
  0O   2py       -0.000000 -0.000000 -0.000857  0.004865 -0.000197 -0.000007
  0O   3pz        0.000167  0.226488 -0.000000 -0.000000  0.000000  0.000000
  0O   3px       -0.000000  0.000000 -0.069700  0.001224  0.240623 -0.531887
  0O   3py       -0.000000 -0.000000 -0.000534 -0.363217  0.001108 -0.002073
  0O   4pz       -0.000565 -1.156455  0.000000  0.000000  0.000000  0.000000
  0O   4px       -0.000000  0.000000 -3.814147  0.001893 -0.498986 -4.393394
  0O   4py       -0.000000 -0.000000 -0.014778 -0.055851 -0.001952 -0.016644
  0O   1dz2       0.000000  0.000000  0.000001 -0.000458 -0.000001  0.000002
  0O   1dxz       0.002465  0.000005  0.000000 -0.000000  0.000000  0.000000
  0O   1dyz       0.000009 -0.001165  0.000000 -0.000000  0.000000  0.000000
  0O   1dx2y2     0.000000 -0.000000 -0.000012 -0.000664  0.000010 -0.000029
  0O   1dxy      -0.000000  0.000000  0.001624 -0.000006 -0.001148  0.003559
  0O   2dz2      -0.000000 -0.000000 -0.000005  0.003962  0.000001 -0.000014
  0O   2dxz       0.006044  0.000026 -0.000000  0.000000 -0.000000 -0.000000
  0O   2dyz       0.000019 -0.008583 -0.000000  0.000000  0.000000 -0.000000
  0O   2dx2y2    -0.000000  0.000000 -0.000067 -0.007313  0.000218 -0.000293
  0O   2dxy       0.000000 -0.000000  0.008537 -0.000077 -0.029446  0.038755
  0O   3dz2      -0.000000 -0.000000 -0.000062 -0.094226  0.000061 -0.000043
  0O   3dxz       0.120263  0.000321 -0.000000  0.000000 -0.000000 -0.000000
  0O   3dyz       0.000412 -0.091022 -0.000000  0.000000 -0.000000 -0.000000
  0O   3dx2y2     0.000000  0.000000 -0.000580  0.018379  0.000773 -0.001323
  0O   3dxy       0.000000 -0.000000  0.086352  0.000157 -0.098295  0.189903
  0O   1f0        0.000001  0.001310  0.000000 -0.000000  0.000000  0.000000
  0O   1f+1      -0.000000 -0.000000  0.001589  0.000007 -0.000943  0.000809
  0O   1f-1      -0.000000 -0.000000  0.000005 -0.002787 -0.000003  0.000003
  0O   1f+2      -0.000008 -0.000362 -0.000000  0.000000 -0.000000 -0.000000
  0O   1f-2       0.001060 -0.000003 -0.000000  0.000000 -0.000000 -0.000000
  0O   1f+3       0.000000  0.000000 -0.000263  0.000052  0.000400 -0.001877
  0O   1f-3       0.000000  0.000000 -0.000008 -0.004372  0.000005 -0.000026
  0O   2f0       -0.000012 -0.020987 -0.000000  0.000000 -0.000000 -0.000000
  0O   2f+1       0.000000 -0.000000 -0.004837 -0.000060  0.000045  0.010420
  0O   2f-1       0.000000  0.000000 -0.000011  0.018837 -0.000012  0.000045
  0O   2f+2       0.000174  0.005873  0.000000 -0.000000  0.000000  0.000000
  0O   2f-2      -0.022520  0.000047  0.000000 -0.000000  0.000000  0.000000
  0O   2f+3      -0.000000  0.000000 -0.016390 -0.000299  0.016346  0.006856
  0O   2f-3       0.000000  0.000000 -0.000151  0.027087  0.000175  0.000130
  0O   1g0        0.000000  0.000000  0.000002  0.001428 -0.000001  0.000001
  0O   1g+1      -0.002753 -0.000009  0.000000 -0.000000  0.000000  0.000000
  0O   1g-1      -0.000009  0.002318  0.000000 -0.000000  0.000000  0.000000
  0O   1g+2       0.000000  0.000000 -0.000004 -0.000249 -0.000008  0.000001
  0O   1g-2      -0.000000  0.000000  0.000032 -0.000001  0.000871 -0.000487
  0O   1g+3       0.000972 -0.000033 -0.000000  0.000000 -0.000000 -0.000000
  0O   1g-3       0.000013  0.002912 -0.000000 -0.000000  0.000000  0.000000
  0O   1g+4       0.000000  0.000000 -0.000044  0.001430  0.000010  0.000021
  0O   1g-4      -0.000000 -0.000000  0.002958  0.000019 -0.000817 -0.001189
  0O   8s         0.000000 -0.000000  0.001770  3.953732  0.000466  0.001450
  0O   5pz       -0.000643 -1.716345 -0.000000  0.000000 -0.000000  0.000000
  0O   5px       -0.000000  0.000000 -2.103922 -0.001482  1.505578 -1.465250
  0O   5py       -0.000000  0.000000 -0.007965  0.620694  0.005388 -0.005990
  0O   4dz2      -0.000000 -0.000000 -0.000081 -0.060781 -0.000102 -0.000139
  0O   4dxz      -0.253463 -0.000405  0.000000 -0.000000  0.000000  0.000000
  0O   4dyz      -0.000903  0.107012 -0.000000  0.000000  0.000000 -0.000000
  0O   4dx2y2     0.000000  0.000000 -0.004668 -0.006102  0.002913 -0.015684
  0O   4dxy       0.000000 -0.000000  0.598458 -0.000463 -0.409164  2.035978
  1H   1s        -0.000000  0.000000  0.010136 -0.021149  0.044956 -0.061924
  1H   2s         0.000000 -0.000000 -0.049302 -0.176565  0.068448 -0.130145
  1H   3s         0.000000 -0.000000  1.554247 -0.437579 -0.511524  2.458461
  1H   4s         0.000000 -0.000000 10.170930 -2.250804  9.354047 13.071087
  1H   1pz        0.001099  0.002152 -0.000000  0.000000 -0.000000 -0.000000
  1H   1px        0.000000 -0.000000  0.006992 -0.005144  0.003234  0.004504
  1H   1py       -0.000000  0.000000 -0.003193  0.000286  0.001614  0.004824
  1H   2pz        0.006741 -0.002014  0.000000 -0.000000  0.000000  0.000000
  1H   2px       -0.000000  0.000000 -0.014841  0.028217 -0.007500 -0.041431
  1H   2py        0.000000 -0.000000  0.004034 -0.014390 -0.036589  0.003475
  1H   3pz       -0.053669 -0.050603 -0.000000 -0.000000 -0.000000 -0.000000
  1H   3px       -0.000000  0.000000 -0.169234  0.008664  0.364265 -0.435321
  1H   3py        0.000000 -0.000000  0.126911 -0.013536 -0.124054  0.564212
  1H   1dz2      -0.000000  0.000000  0.001293  0.000356 -0.001219 -0.000108
  1H   1dxz      -0.000205 -0.000052 -0.000000  0.000000 -0.000000 -0.000000
  1H   1dyz      -0.000108  0.000405  0.000000 -0.000000  0.000000  0.000000
  1H   1dx2y2     0.000000 -0.000000 -0.000331  0.000908  0.001761 -0.000672
  1H   1dxy       0.000000  0.000000  0.000876  0.001380 -0.000385  0.002697
  1H   2dz2      -0.000000  0.000000 -0.019323 -0.013008  0.028347 -0.032535
  1H   2dxz       0.026779  0.028475 -0.000000  0.000000 -0.000000 -0.000000
  1H   2dyz      -0.017946 -0.025977  0.000000 -0.000000  0.000000  0.000000
  1H   2dx2y2    -0.000000 -0.000000  0.034297  0.002508 -0.031893 -0.000932
  1H   2dxy      -0.000000  0.000000 -0.020317 -0.028168  0.025998 -0.066145
  1H   1f0        0.003361  0.004054 -0.000000  0.000000 -0.000000 -0.000000
  1H   1f+1      -0.000000 -0.000000  0.004117  0.003338 -0.003400  0.003696
  1H   1f-1      -0.000000  0.000000 -0.000541 -0.002841  0.000452 -0.003455
  1H   1f+2      -0.000929 -0.001427  0.000000 -0.000000  0.000000  0.000000
  1H   1f-2       0.004543  0.004724 -0.000000  0.000000 -0.000000 -0.000000
  1H   1f+3      -0.000000  0.000000  0.002434 -0.002002 -0.002285 -0.005485
  1H   1f-3       0.000000  0.000000 -0.006471 -0.006711  0.003414 -0.003863
  1H   4pz        1.573060  1.588123  0.000000 -0.000000 -0.000000 -0.000000
  1H   4px       -0.000000  0.000000 -2.078024  1.323500 -5.287037 -3.473203
  1H   4py        0.000000 -0.000000  2.419420 -1.381549  0.247588 -0.304414
  2H   1s         0.000000  0.000000 -0.010151 -0.021155 -0.044955  0.061945
  2H   2s        -0.000000 -0.000000  0.049078 -0.176753 -0.068271  0.129879
  2H   3s        -0.000000  0.000000 -1.555198 -0.436192  0.512107 -2.457920
  2H   4s        -0.000000  0.000000-10.172893 -2.243275 -9.354613-13.072983
  2H   1pz       -0.001098  0.002154  0.000000 -0.000000  0.000000  0.000000
  2H   1px        0.000000 -0.000000  0.006964  0.005131  0.003236  0.004531
  2H   1py        0.000000 -0.000000  0.003253  0.000320 -0.001588 -0.004792
  2H   2pz       -0.006749 -0.002002 -0.000000  0.000000 -0.000000 -0.000000
  2H   2px       -0.000000 -0.000000 -0.014828 -0.028081 -0.007680 -0.041421
  2H   2py       -0.000000 -0.000000 -0.004227 -0.014599  0.036555 -0.003873
  2H   3pz        0.053597 -0.050622 -0.000000  0.000000  0.000000 -0.000000
  2H   3px       -0.000000 -0.000000 -0.168460 -0.008430  0.363415 -0.430933
  2H   3py       -0.000000  0.000000 -0.128279 -0.013533  0.126942 -0.567615
  2H   1dz2       0.000000  0.000000 -0.001291  0.000356  0.001216  0.000114
  2H   1dxz      -0.000205  0.000047 -0.000000  0.000000 -0.000000 -0.000000
  2H   1dyz       0.000107  0.000409 -0.000000  0.000000 -0.000000 -0.000000
  2H   1dx2y2    -0.000000 -0.000000  0.000319  0.000927 -0.001756  0.000631
  2H   1dxy      -0.000000 -0.000000  0.000876 -0.001366 -0.000408  0.002695
  2H   2dz2       0.000000  0.000000  0.019318 -0.013045 -0.028363  0.032516
  2H   2dxz       0.026605 -0.028281 -0.000000  0.000000 -0.000000 -0.000000
  2H   2dyz       0.018123 -0.026211 -0.000000  0.000000 -0.000000 -0.000000
  2H   2dx2y2    -0.000000  0.000000 -0.033952  0.002139  0.031531  0.002005
  2H   2dxy      -0.000000 -0.000000 -0.020841  0.028253  0.026496 -0.066129
  2H   1f0       -0.003357  0.004056  0.000000 -0.000000  0.000000  0.000000
  2H   1f+1       0.000000 -0.000000  0.004108 -0.003326 -0.003398  0.003662
  2H   1f-1       0.000000  0.000000  0.000571 -0.002871 -0.000480  0.003480
  2H   1f+2       0.000858 -0.001355 -0.000000  0.000000 -0.000000 -0.000000
  2H   1f-2       0.004551 -0.004746 -0.000000  0.000000 -0.000000 -0.000000
  2H   1f+3      -0.000000 -0.000000  0.002281  0.002152 -0.002210 -0.005583
  2H   1f-3       0.000000 -0.000000  0.006522 -0.006680 -0.003466  0.003733
  2H   4pz       -1.571773  1.589082  0.000000 -0.000000  0.000000 -0.000000
  2H   4px       -0.000000  0.000000 -2.060637 -1.311750 -5.285000 -3.475798
  2H   4py       -0.000000  0.000000 -2.435956 -1.389967 -0.287430  0.277921
                     18        19        20        21        22        23   
                   0.29201   0.31408   0.38288   0.39740   0.40513   0.44563
                   0.00000   0.00000   0.00000   0.00000   0.00000   0.00000
                  --------  --------  --------  --------  --------  --------
  0O   1s         0.020285 -0.000000 -0.001100  0.000000  0.023819 -0.000000
  0O   2s         0.002825 -0.000000 -0.001763  0.000000  0.003234 -0.000000
  0O   3s         0.026621 -0.000000  0.004190  0.000000  0.032046 -0.000000
  0O   4s         0.008025  0.000000 -0.019794  0.000000  0.004795 -0.000000
  0O   5s        -0.021365 -0.000000  0.108360  0.000000  0.119160  0.000000
  0O   6s        -0.352272  0.000000 -0.327090 -0.000000 -1.300871 -0.000000
  0O   7s         0.566274  0.000000  0.323955 -0.000000 -9.250585 -0.000000
  0O   1pz       -0.000000 -0.139452 -0.000000  0.000021 -0.000000 -0.175490
  0O   1px        0.000184  0.000000 -0.000193  0.000000  0.000058 -0.000000
  0O   1py       -0.049446  0.000000  0.045772 -0.000000 -0.020211 -0.000000
  0O   2pz        0.000000 -0.066413  0.000000 -0.000031 -0.000000 -0.034719
  0O   2px       -0.000081  0.000000 -0.000239  0.000000 -0.000597 -0.000000
  0O   2py        0.025411 -0.000000  0.057724  0.000000  0.159646 -0.000000
  0O   3pz       -0.000000 -0.402840 -0.000000  0.000265 -0.000000 -0.899628
  0O   3px        0.000918  0.000000 -0.001093  0.000000 -0.007135 -0.000000
  0O   3py       -0.214219 -0.000000  0.325368  0.000000  1.886768  0.000000
  0O   4pz        0.000000  0.475684  0.000000 -0.000417  0.000000  3.763157
  0O   4px        0.003127  0.000000 -0.001434  0.000000 -0.019987 -0.000000
  0O   4py       -0.392047 -0.000000  0.321061  0.000000  5.441396 -0.000000
  0O   1dz2      -0.001445  0.000000 -0.004070 -0.000000 -0.003489 -0.000000
  0O   1dxz      -0.000000  0.000006 -0.000000  0.001935 -0.000000  0.000015
  0O   1dyz      -0.000000 -0.001409 -0.000000  0.000007 -0.000000 -0.003111
  0O   1dx2y2     0.001733 -0.000000  0.004407  0.000000  0.002434  0.000000
  0O   1dxy       0.000012  0.000000  0.000033  0.000000  0.000019 -0.000000
  0O   2dz2      -0.025922 -0.000000  0.011511  0.000000  0.043650  0.000000
  0O   2dxz       0.000000 -0.000136  0.000000  0.036637 -0.000000  0.000034
  0O   2dyz       0.000000  0.036990  0.000000  0.000136 -0.000000 -0.010896
  0O   2dx2y2    -0.006435  0.000000  0.031779 -0.000000 -0.025399 -0.000000
  0O   2dxy      -0.000050 -0.000000  0.000244 -0.000000 -0.000197  0.000000
  0O   3dz2       0.011837 -0.000000  0.033433  0.000000  0.377481  0.000000
  0O   3dxz       0.000000  0.000190  0.000000 -0.080435  0.000000 -0.000028
  0O   3dyz       0.000000 -0.027118  0.000000 -0.000367  0.000000  0.046293
  0O   3dx2y2    -0.011363  0.000000 -0.031731 -0.000000 -0.075866 -0.000000
  0O   3dxy      -0.000156 -0.000000 -0.000226 -0.000000 -0.000704  0.000000
  0O   1f0       -0.000000 -0.000389 -0.000000  0.000001  0.000000 -0.000859
  0O   1f+1       0.000004  0.000000 -0.000001  0.000000  0.000003 -0.000000
  0O   1f-1      -0.001092  0.000000  0.000352 -0.000000 -0.000614  0.000000
  0O   1f+2       0.000000 -0.000106  0.000000  0.000009 -0.000000  0.000222
  0O   1f-2       0.000000  0.000002  0.000000 -0.001220  0.000000  0.000006
  0O   1f+3       0.000012 -0.000000 -0.000006 -0.000000  0.000046 -0.000000
  0O   1f-3      -0.001094  0.000000  0.000763 -0.000000 -0.004209  0.000000
  0O   2f0        0.000000  0.005616  0.000000 -0.000021  0.000000  0.031296
  0O   2f+1      -0.000013 -0.000000  0.000031 -0.000000  0.000124  0.000000
  0O   2f-1       0.003486  0.000000 -0.008427 -0.000000 -0.034983 -0.000000
  0O   2f+2      -0.000000 -0.000672 -0.000000 -0.000203 -0.000000 -0.010964
  0O   2f-2      -0.000000 -0.000040 -0.000000  0.028019 -0.000000 -0.000126
  0O   2f+3       0.000043  0.000000  0.000270  0.000000  0.000519 -0.000000
  0O   2f-3      -0.003321  0.000000 -0.026374 -0.000000 -0.042850 -0.000000
  0O   1g0       -0.000308  0.000000 -0.000832 -0.000000 -0.002160 -0.000000
  0O   1g+1      -0.000000 -0.000005 -0.000000  0.005125 -0.000000  0.000015
  0O   1g-1      -0.000000  0.000029 -0.000000  0.000021  0.000000 -0.005255
  0O   1g+2       0.000469 -0.000000  0.002043 -0.000000 -0.000352  0.000000
  0O   1g-2       0.000003  0.000000  0.000014  0.000000 -0.000002 -0.000000
  0O   1g+3       0.000000  0.000008  0.000000 -0.001866  0.000000  0.000079
  0O   1g-3      -0.000000 -0.000451 -0.000000 -0.000018 -0.000000 -0.006628
  0O   1g+4       0.000707  0.000000 -0.001036 -0.000000 -0.005033 -0.000000
  0O   1g-4       0.000010  0.000000 -0.000014  0.000000 -0.000079 -0.000000
  0O   8s         7.832533  0.000000 11.167904 -0.000000 -5.311359 -0.000000
  0O   5pz        0.000000 -1.333717  0.000000  0.000060  0.000000  1.070332
  0O   5px        0.006867 -0.000000 -0.000583  0.000000 -0.001335 -0.000000
  0O   5py       -1.735178 -0.000000  0.162544  0.000000  0.391802  0.000000
  0O   4dz2      -1.059344 -0.000000  0.135967  0.000000  2.135322 -0.000000
  0O   4dxz      -0.000000 -0.003764  0.000000  2.041619 -0.000000  0.005615
  0O   4dyz      -0.000000  1.055197 -0.000000  0.007746 -0.000000 -1.447652
  0O   4dx2y2     0.026134  0.000000  2.018080 -0.000000 -0.865927  0.000000
  0O   4dxy      -0.000273 -0.000000  0.015573 -0.000000 -0.006612  0.000000
  1H   1s         0.041313 -0.000000  0.037813  0.000000  0.020266 -0.000000
  1H   2s         0.080048 -0.000000  0.172900 -0.000000  0.221027  0.000000
  1H   3s         0.001941 -0.000000  0.928053  0.000000  8.067431  0.000000
  1H   4s        -4.584710  0.000000 -6.620721  0.000000  1.470818 -0.000000
  1H   1pz        0.000000  0.000697 -0.000000 -0.007022 -0.000000 -0.012035
  1H   1px        0.006832 -0.000000  0.004001  0.000000  0.025461  0.000000
  1H   1py       -0.004874  0.000000 -0.007324 -0.000000 -0.014216 -0.000000
  1H   2pz       -0.000000 -0.013636  0.000000  0.082322 -0.000000  0.098451
  1H   2px       -0.035799  0.000000 -0.019305 -0.000000 -0.215088 -0.000000
  1H   2py        0.036529 -0.000000  0.110910  0.000000  0.136755  0.000000
  1H   3pz       -0.000000  0.077137 -0.000000 -0.090383 -0.000000 -0.142394
  1H   3px        0.149711  0.000000 -0.088454 -0.000000 -1.419381 -0.000000
  1H   3py       -0.047748 -0.000000 -0.115662  0.000000  0.953033  0.000000
  1H   1dz2      -0.001803  0.000000 -0.002864  0.000000 -0.000439 -0.000000
  1H   1dxz       0.000000  0.002237 -0.000000 -0.001309  0.000000 -0.000925
  1H   1dyz      -0.000000 -0.000316  0.000000  0.002677 -0.000000  0.000199
  1H   1dx2y2     0.001038 -0.000000 -0.001710 -0.000000  0.000001  0.000000
  1H   1dxy      -0.000958  0.000000 -0.004971  0.000000  0.000750 -0.000000
  1H   2dz2      -0.013065  0.000000 -0.007782 -0.000000 -0.114022 -0.000000
  1H   2dxz       0.000000 -0.004222 -0.000000 -0.023868  0.000000 -0.040733
  1H   2dyz      -0.000000  0.007451  0.000000  0.022089 -0.000000  0.023026
  1H   2dx2y2    -0.005567 -0.000000 -0.002262  0.000000  0.072924  0.000000
  1H   2dxy      -0.015773  0.000000 -0.024505 -0.000000 -0.192446 -0.000000
  1H   1f0        0.000000 -0.000147 -0.000000 -0.003480  0.000000 -0.005267
  1H   1f+1       0.003408 -0.000000 -0.000212  0.000000  0.011392  0.000000
  1H   1f-1      -0.002575  0.000000 -0.000893 -0.000000 -0.009838 -0.000000
  1H   1f+2      -0.000000 -0.001748  0.000000 -0.000142  0.000000  0.002464
  1H   1f-2       0.000000 -0.000834 -0.000000 -0.005534  0.000000 -0.004955
  1H   1f+3      -0.001808 -0.000000 -0.003397 -0.000000 -0.003685 -0.000000
  1H   1f-3      -0.002150  0.000000 -0.002282 -0.000000 -0.017896 -0.000000
  1H   4pz       -0.000000  0.743601 -0.000000 -2.088482  0.000000 -2.104685
  1H   4px        0.061199 -0.000000  0.008830  0.000000  0.750343  0.000000
  1H   4py       -0.063772 -0.000000 -2.258215 -0.000000 -0.689965 -0.000000
  2H   1s         0.041299  0.000000  0.037808  0.000000  0.020251 -0.000000
  2H   2s         0.080009  0.000000  0.172850  0.000000  0.221112 -0.000000
  2H   3s         0.003448  0.000000  0.928235  0.000000  8.068021 -0.000000
  2H   4s        -4.574112 -0.000000 -6.623319  0.000000  1.475027  0.000000
  2H   1pz       -0.000000  0.000689 -0.000000  0.007028 -0.000000 -0.012034
  2H   1px       -0.006801 -0.000000 -0.003943 -0.000000 -0.025353  0.000000
  2H   1py       -0.004921 -0.000000 -0.007368 -0.000000 -0.014413  0.000000
  2H   2pz        0.000000 -0.013588  0.000000 -0.082367  0.000000  0.098483
  2H   2px        0.035557  0.000000  0.018415  0.000000  0.214095 -0.000000
  2H   2py        0.036779  0.000000  0.111118  0.000000  0.138423 -0.000000
  2H   3pz        0.000000  0.077255 -0.000000  0.090303 -0.000000 -0.142134
  2H   3px       -0.149178  0.000000  0.089620  0.000000  1.412350 -0.000000
  2H   3py       -0.048580  0.000000 -0.114878  0.000000  0.963870 -0.000000
  2H   1dz2      -0.001802 -0.000000 -0.002857 -0.000000 -0.000436 -0.000000
  2H   1dxz       0.000000 -0.002230  0.000000 -0.001287  0.000000  0.000922
  2H   1dyz       0.000000 -0.000336  0.000000 -0.002685  0.000000  0.000212
  2H   1dx2y2     0.001023  0.000000 -0.001793  0.000000  0.000014 -0.000000
  2H   1dxy       0.000970  0.000000  0.004939  0.000000 -0.000747  0.000000
  2H   2dz2      -0.013072 -0.000000 -0.007827 -0.000000 -0.114045  0.000000
  2H   2dxz       0.000000  0.004211  0.000000 -0.023748  0.000000  0.040637
  2H   2dyz       0.000000  0.007540  0.000000 -0.022319  0.000000  0.023381
  2H   2dx2y2    -0.005795  0.000000 -0.002652  0.000000  0.070040 -0.000000
  2H   2dxy       0.015719  0.000000  0.024505  0.000000  0.193536 -0.000000
  2H   1f0       -0.000000 -0.000155 -0.000000  0.003486 -0.000000 -0.005275
  2H   1f+1      -0.003389 -0.000000  0.000218 -0.000000 -0.011319  0.000000
  2H   1f-1      -0.002600 -0.000000 -0.000898 -0.000000 -0.009923  0.000000
  2H   1f+2       0.000000 -0.001757  0.000000  0.000227 -0.000000  0.002392
  2H   1f-2       0.000000  0.000818  0.000000 -0.005539  0.000000  0.005007
  2H   1f+3       0.001858 -0.000000  0.003453  0.000000  0.004083 -0.000000
  2H   1f-3      -0.002112 -0.000000 -0.002195 -0.000000 -0.017812  0.000000
  2H   4pz       -0.000000  0.744058 -0.000000  2.088728 -0.000000 -2.104661
  2H   4px       -0.057239 -0.000000  0.007261 -0.000000 -0.743903  0.000000
  2H   4py       -0.063850  0.000000 -2.258031 -0.000000 -0.695059  0.000000
                     24        25        26        27        28        29   
                   0.45799   0.46072   0.58266   0.68835   0.72734   0.76694
                   0.00000   0.00000   0.00000   0.00000   0.00000   0.00000
                  --------  --------  --------  --------  --------  --------
  0O   1s        -0.001035 -0.000005 -0.000005  0.000000 -0.000000 -0.007092
  0O   2s        -0.001953 -0.000005  0.000001 -0.000000 -0.000000  0.000960
  0O   3s         0.004720  0.000007 -0.000011  0.000000 -0.000000 -0.016346
  0O   4s        -0.019292 -0.000039  0.000003 -0.000000 -0.000000  0.019850
  0O   5s         0.043043  0.000006  0.000086  0.000000  0.000000 -0.079884
  0O   6s         0.009371  0.000424 -0.000184 -0.000000 -0.000000  0.249187
  0O   7s         5.789964  0.015606 -0.004054 -0.000000 -0.000000  3.409624
  0O   1pz       -0.000000  0.000000  0.000000 -0.000020  0.059059 -0.000000
  0O   1px       -0.000470 -0.154667  0.136515 -0.000000 -0.000000  0.000172
  0O   1py        0.217525 -0.000080  0.000497 -0.000000  0.000000 -0.046052
  0O   2pz        0.000000  0.000000  0.000000 -0.000035  0.065233  0.000000
  0O   2px        0.000031 -0.166491 -0.184811  0.000000 -0.000000  0.000049
  0O   2py        0.093745 -0.000458 -0.000694  0.000000  0.000000  0.004803
  0O   3pz       -0.000000  0.000000  0.000000 -0.000586  0.835712  0.000000
  0O   3px        0.003712 -1.793540 -1.076958  0.000000 -0.000000  0.006775
  0O   3py       -0.055296 -0.007480 -0.003319  0.000000  0.000000 -1.771104
  0O   4pz        0.000000 -0.000000 -0.000000 -0.001026  1.760947  0.000000
  0O   4px        0.023865 -0.955504-13.608394  0.000000 -0.000000  0.016789
  0O   4py       -5.968661 -0.018044 -0.050753 -0.000000  0.000000 -3.948621
  0O   1dz2      -0.005773 -0.000010 -0.000005 -0.000000 -0.000000 -0.000711
  0O   1dxz      -0.000000 -0.000000  0.000000 -0.007644 -0.000032 -0.000000
  0O   1dyz      -0.000000  0.000000  0.000000 -0.000032  0.007012  0.000000
  0O   1dx2y2    -0.002126  0.000047  0.000060  0.000000  0.000000  0.008007
  0O   1dxy      -0.000001 -0.007065 -0.007654  0.000000 -0.000000  0.000061
  0O   2dz2       0.004524 -0.000008  0.000024  0.000000  0.000000  0.012146
  0O   2dxz       0.000000  0.000000 -0.000000 -0.018889 -0.000073  0.000000
  0O   2dyz       0.000000  0.000000  0.000000 -0.000079  0.016087 -0.000000
  0O   2dx2y2     0.005903 -0.000317 -0.000227 -0.000000 -0.000000  0.023884
  0O   2dxy      -0.000055  0.044527  0.028670 -0.000000  0.000000  0.000180
  0O   3dz2      -0.228361 -0.000697  0.000221  0.000000  0.000000 -0.193391
  0O   3dxz       0.000000  0.000000 -0.000000  0.193967  0.000708  0.000000
  0O   3dyz       0.000000 -0.000000 -0.000000  0.000958 -0.195554 -0.000000
  0O   3dx2y2     0.072218 -0.001823 -0.003634 -0.000000 -0.000000 -0.591428
  0O   3dxy       0.000094  0.291695  0.438997 -0.000000  0.000000 -0.004417
  0O   1f0       -0.000000  0.000000  0.000000 -0.000006  0.007645  0.000000
  0O   1f+1       0.000002 -0.001393  0.003289 -0.000000 -0.000000  0.000027
  0O   1f-1      -0.000293 -0.000006  0.000013 -0.000000  0.000000 -0.007199
  0O   1f+2       0.000000  0.000000 -0.000000 -0.000057 -0.000962 -0.000000
  0O   1f-2       0.000000  0.000000 -0.000000  0.007207 -0.000006 -0.000000
  0O   1f+3       0.000002 -0.000231 -0.000987 -0.000000  0.000000 -0.000084
  0O   1f-3      -0.000144 -0.000009 -0.000002 -0.000000  0.000000  0.007722
  0O   2f0        0.000000 -0.000000 -0.000000  0.000064 -0.065850 -0.000000
  0O   2f+1      -0.000074  0.034787  0.006858 -0.000000  0.000000 -0.000232
  0O   2f-1       0.005722  0.000162  0.000006  0.000000 -0.000000  0.062270
  0O   2f+2      -0.000000  0.000000  0.000000  0.000447  0.013137  0.000000
  0O   2f-2      -0.000000 -0.000000  0.000000 -0.058898  0.000107 -0.000000
  0O   2f+3      -0.000329  0.008020 -0.038618  0.000000 -0.000000  0.000593
  0O   2f-3       0.027268  0.000238 -0.000555 -0.000000 -0.000000 -0.055418
  0O   1g0        0.000693  0.000005 -0.000005 -0.000000 -0.000000  0.003298
  0O   1g+1      -0.000000 -0.000000  0.000000 -0.004508 -0.000018 -0.000000
  0O   1g-1      -0.000000  0.000000  0.000000 -0.000023  0.005156  0.000000
  0O   1g+2      -0.002490 -0.000004  0.000014  0.000000  0.000000  0.006412
  0O   1g-2      -0.000018 -0.000980 -0.000882  0.000000 -0.000000  0.000047
  0O   1g+3       0.000000  0.000000 -0.000000  0.001203 -0.000065 -0.000000
  0O   1g-3      -0.000000  0.000000  0.000000  0.000008  0.005517  0.000000
  0O   1g+4      -0.000431  0.000087 -0.000084  0.000000 -0.000000  0.008768
  0O   1g-4       0.000003 -0.005513  0.005068 -0.000000 -0.000000  0.000135
  0O   8s        17.722395  0.040513 -0.002143 -0.000000 -0.000000 -1.976457
  0O   5pz        0.000000 -0.000000 -0.000000  0.000118 -0.197483  0.000000
[...]
 1 H  dz2             0.2       1.2       0.6       0.3       0.0       0.0
 1 H  dxz             0.0       0.0       0.0       0.0       0.0       4.0
 1 H  dyz             0.0       0.0       0.0       0.0       0.0       2.3
 1 H  dx2y2           0.5       0.1       4.3       6.4       1.9       0.0
 1 H  dxy             0.2       0.7       0.8       3.5       0.2       0.0
 1 H  f0              0.0       0.0       0.0       0.0       0.0       0.3
 1 H  f+1             0.1       0.1       0.5       0.0       0.0       0.0
 1 H  f-1             0.1       0.2       0.0       0.1       0.0       0.0
 1 H  f-2             0.0       0.0       0.0       0.0       0.0       0.5
 1 H  f+3             1.2       0.1       0.5       1.2       0.2       0.0
 1 H  f-3             0.0       0.0       0.9       0.0       0.0       0.0
 2 H  s               2.3       3.3       2.1       0.4       0.8       0.0
 2 H  pz              0.0       0.0       0.0       0.0       0.0       2.1
 2 H  px              1.9       3.1       3.0       0.4       0.8       0.0
 2 H  py              2.5       0.3       0.8       3.0       1.0       0.0
 2 H  dz2             0.2       1.2       0.6       0.3       0.0       0.0
 2 H  dxz             0.0       0.0       0.0       0.0       0.0       4.0
 2 H  dyz             0.0       0.0       0.0       0.0       0.0       2.3
 2 H  dx2y2           0.5       0.1       4.2       6.5       1.9       0.0
 2 H  dxy             0.2       0.7       0.9       3.4       0.2       0.0
 2 H  f0              0.0       0.0       0.0       0.0       0.0       0.3
 2 H  f+1             0.1       0.1       0.5       0.0       0.0       0.0
 2 H  f-1             0.1       0.2       0.0       0.1       0.0       0.0
 2 H  f-2             0.0       0.0       0.0       0.0       0.0       0.5
 2 H  f+3             1.2       0.1       0.4       1.2       0.2       0.0
 2 H  f-3             0.0       0.0       0.9       0.0       0.0       0.0

                    126       127       128       129       130       131   
                  13.90251  14.23099  16.56274  16.58095  48.02224 252.60885
                   0.00000   0.00000   0.00000   0.00000   0.00000   0.00000
                  --------  --------  --------  --------  --------  --------
 0 O  s               0.0      16.6       0.0      40.6      99.7     100.0
 0 O  px              0.0       0.0      19.0       0.0       0.0       0.0
 0 O  py              0.0       0.8       0.0       7.2       0.1       0.0
 0 O  dz2             0.0       9.1       0.0       8.0       0.0       0.0
 0 O  dxz            66.7       0.0       0.0       0.0       0.0       0.0
 0 O  dx2y2           0.0      60.5       0.0       2.0       0.0       0.0
 0 O  dxy             0.0       0.0      37.0       0.0       0.0       0.0
 0 O  f+1             0.0       0.0       6.0       0.0       0.0       0.0
 0 O  f-1             0.0       0.3       0.0       2.8       0.0       0.0
 0 O  f-2             7.7       0.0       0.0       0.0       0.0       0.0
 0 O  f+3             0.0       0.0       2.9       0.0       0.0       0.0
 0 O  f-3             0.0       1.1       0.0      11.9       0.0       0.0
 0 O  g0              0.0       0.3       0.0       0.0       0.0       0.0
 0 O  g+1             7.0       0.0       0.0       0.0       0.0       0.0
 0 O  g+2             0.0       1.5       0.0       0.0       0.0       0.0
 0 O  g-2             0.0       0.0       0.1       0.0       0.0       0.0
 0 O  g+3             1.3       0.0       0.0       0.0       0.0       0.0
 0 O  g+4             0.0       0.1       0.0       0.0       0.0       0.0
 1 H  s               0.0       0.4       8.8       6.0       0.1       0.0
 1 H  pz              2.4       0.0       0.0       0.0       0.0       0.0
 1 H  px              0.0       0.7       2.9       2.1       0.0       0.0
 1 H  py              0.0       0.8       1.6       1.0       0.0       0.0
 1 H  dz2             0.0       0.0       1.0       1.2       0.0       0.0
 1 H  dxz             3.5       0.0       0.0       0.0       0.0       0.0
 1 H  dyz             1.9       0.0       0.0       0.0       0.0       0.0
 1 H  dx2y2           0.0       2.4       0.3       0.2       0.0       0.0
 1 H  dxy             0.0       0.0       2.9       3.2       0.0       0.0
 1 H  f0              0.3       0.0       0.0       0.0       0.0       0.0
 1 H  f-2             0.5       0.0       0.0       0.0       0.0       0.0
 1 H  f+3             0.0       0.1       0.0       0.0       0.0       0.0
 1 H  f-3             0.0       0.2       0.0       0.0       0.0       0.0
 2 H  s               0.0       0.4       8.8       6.0       0.1       0.0
 2 H  pz              2.4       0.0       0.0       0.0       0.0       0.0
 2 H  px              0.0       0.7       2.9       2.1       0.0       0.0
 2 H  py              0.0       0.8       1.6       1.0       0.0       0.0
 2 H  dz2             0.0       0.0       1.0       1.2       0.0       0.0
 2 H  dxz             3.5       0.0       0.0       0.0       0.0       0.0
 2 H  dyz             2.0       0.0       0.0       0.0       0.0       0.0
 2 H  dx2y2           0.0       2.5       0.2       0.2       0.0       0.0
 2 H  dxy             0.0       0.0       2.9       3.2       0.0       0.0
 2 H  f0              0.3       0.0       0.0       0.0       0.0       0.0
 2 H  f-2             0.5       0.0       0.0       0.0       0.0       0.0
 2 H  f+3             0.0       0.1       0.0       0.0       0.0       0.0
 2 H  f-3             0.0       0.2       0.0       0.0       0.0       0.0



                      *****************************
                      * MAYER POPULATION ANALYSIS *
                      *****************************

  NA   - Mulliken gross atomic population
  ZA   - Total nuclear charge
  QA   - Mulliken gross atomic charge
  VA   - Mayer's total valence
  BVA  - Mayer's bonded valence
  FA   - Mayer's free valence

  ATOM       NA         ZA         QA         VA         BVA        FA
  0 O      8.3803     8.0000    -0.3803     2.0689     2.0689    -0.0000
  1 H      0.8099     1.0000     0.1901     1.0589     1.0589    -0.0000
  2 H      0.8099     1.0000     0.1901     1.0589     1.0589    -0.0000

  Mayer bond orders larger than 0.100000
B(  0-O ,  1-H ) :   1.0345 B(  0-O ,  2-H ) :   1.0345 

-------
TIMINGS
-------

Total SCF time: 0 days 0 hours 0 min 2 sec 

Total time                  ....       2.543 sec
Sum of individual times     ....       2.357 sec  ( 92.7%)

SCF preparation             ....       0.368 sec  ( 14.5%)
Fock matrix formation       ....       1.446 sec  ( 56.9%)
  Startup                   ....       0.027 sec  (  1.8% of F)
  Split-RI-J                ....       0.182 sec  ( 12.6% of F)
  XC integration            ....       0.966 sec  ( 66.8% of F)
    XC Preparation          ....       0.000 sec  (  0.0% of XC)
    Basis function eval.    ....       0.026 sec  (  2.7% of XC)
    Density eval.           ....       0.020 sec  (  2.0% of XC)
    XC-Functional eval.     ....       0.003 sec  (  0.3% of XC)
    XC-Potential eval.      ....       0.033 sec  (  3.4% of XC)
Diagonalization             ....       0.000 sec  (  0.0%)
Density matrix formation    ....       0.079 sec  (  3.1%)
Total Energy calculation    ....       0.035 sec  (  1.4%)
Population analysis         ....       0.148 sec  (  5.8%)
Orbital Transformation      ....       0.037 sec  (  1.5%)
Orbital Orthonormalization  ....       0.000 sec  (  0.0%)
DIIS solution               ....       0.192 sec  (  7.6%)
  MO trafo                  ....       0.000 sec  (  0.1 % of DIIS)
  Orb grad                  ....       0.000 sec  (  0.0 % of DIIS)
  Energy W gradient         ....       0.000 sec  (  0.0 % of DIIS)
  DIIS error                ....       0.027 sec  ( 14.2 % of DIIS)
  DIIS work                 ....       0.124 sec  ( 64.5 % of DIIS)
  Form Q                    ....       0.000 sec  (  0.0 % of DIIS)
  Form QpQm                 ....       0.000 sec  (  0.0 % of DIIS)
  Exp/Cayley                ....       0.000 sec  (  0.0 % of DIIS)
  Orb update                ....       0.000 sec  (  0.0 % of DIIS)
  Wake-sleep                ....       0.019 sec  (  9.7 % of DIIS)
SOSCF solution              ....       0.053 sec  (  2.1%)
  MO trafo                  ....       0.023 sec  ( 43.0 % of SOSCF)
  Orb grad                  ....       0.003 sec  (  5.1 % of SOSCF)
  Rot update                ....       0.004 sec  (  8.2 % of SOSCF)
  Step                      ....       0.011 sec  ( 21.2 % of SOSCF)
Finished LeanSCF after   2.6 sec

Maximum memory used throughout the entire LEANSCF-calculation: 6.2 MB


           ************************************************************
           *        Program running with 48 parallel MPI-processes    *
           *              working on a common directory               *
           ************************************************************

------------------------------------------------------------------------------
                         ORCA PROPERTY INTEGRAL CALCULATIONS
------------------------------------------------------------------------------

GBWName                                   ... water.gbw
Number of atoms                           ...      3
Number of basis functions                 ...    132
Max core memory                           ...  10000 MB

Dipole integrals                          ... YES
Quadrupole integrals                      ... YES
Linear momentum integrals                 ...  NO
Angular momentum integrals                ...  NO
Higher moments length integrals           ...  NO
Higher moments velocity integrals         ...  NO
Kinetic energy integrals                  ...  NO
GIAO right hand sides                     ...  NO
GIAO dipole derivative integrals          ...  NO
SOC integrals                             ...  NO
EPR diamagnetic integrals (GIAO)          ...  NO
EPR gauge integrals                       ...  NO
Field gradient integrals                  ...  NO (   0 nuclei)
Spin-dipole/Fermi contact integrals       ...  NO (   0 nuclei)
Contact density integrals                 ...  NO (   0 nuclei)
Nucleus-orbit integrals                   ...  NO (   0 nuclei)
Geometric perturbations                   ...  NO (   3 nuclei)

Choice of electric origin   ... Center of mass
Position of electric origin ... ( -0.0023,  0.6123,  0.0000) 
Choice of magnetic origin   ... GIAO
Position of magnetic origin ... (  0.0000,  0.0000,  0.0000) 

Calculating integrals                     ... Electric Dipole (Length)     done (  0.0 sec)
Calculating integrals                     ... Electric Quadrupole (Length) done (  0.0 sec)

Property integrals calculated in   0.0 sec

Maximum memory used throughout the entire PROPINT-calculation: 10.3 MB

-------------------------   --------------------
FINAL SINGLE POINT ENERGY       -76.387885505920
-------------------------   --------------------



           ************************************************************
           *        Program running with 48 parallel MPI-processes    *
           *              working on a common directory               *
           ************************************************************

------------------------------------------------------------------------------
                              ORCA PROPERTY CALCULATIONS
------------------------------------------------------------------------------

GBWName                                 ... water.gbw
Number of atoms                         ...      3
Number of basis functions               ...    132
Max core memory                         ...  10000 MB

Electric properties:
Dipole moment                           ... YES
Quadrupole moment                       ... YES
Static polarizability (Dipole/Dipole)   ...  NO
Static polarizability (Dipole/Quad.)    ...  NO
Static polarizability (Quad./Quad.)     ...  NO
Static polarizability (Velocity)        ...  NO
Static hyperpolarizability              ...  NO

Atomic electric properties:
Dipole moment                           ...  NO
Quadrupole moment                       ...  NO
Static polarizability                   ...  NO

Choice of electric origin               ... Center of mass
Position of electric origin             ...    -0.002333     0.612288     0.000000

General magnetic properties:
Magnetizability                         ...  NO

EPR properties:
g-Tensor (aka g-matrix)                 ...  NO
Zero-Field splitting spin-orbit         ...  NO
Zero-field splitting spin-spin          ...  NO
Hyperfine couplings                     ...  NO (   0 nuclei)
Quadrupole couplings                    ...  NO (   0 nuclei)
Contact density                         ...  NO (   0 nuclei)

NMR properties:
Chemical shifts                         ...  NO (   0 nuclei)
Spin-rotation constants                 ...  NO (   0 nuclei)
Spin-spin couplings                     ...  NO (   0 nuclei,    0 pairs)

Choice of magnetic origin               ... GIAO
Position of magnetic origin             ...     0.000000     0.000000     0.000000

Properties with geometric perturbations:
SCF Hessian                             ...  NO
IR spectrum                             ...  NO
VCD spectrum                            ...  NO
X-ray spectroscopy properties:
SCF XES/XAS/RIXS spectra                ...  NO

SCF SOC stabilization energy            ...  NO
Diagonal Born-Oppenheimer correction    ...  NO

-------------
DIPOLE MOMENT
-------------

Method             : SCF
Type of density    : Electron Density
Multiplicity       :   1
Irrep              :   0
Energy             :   -76.3878855059204795 Eh
Basis              : AO
                                X                 Y                 Z
Electronic contribution:     -0.001021818       0.268170827      -0.000000000
Nuclear contribution   :      0.003704695      -0.972284383       0.000000000
                        -----------------------------------------
Total Dipole Moment    :      0.002682877      -0.704113557      -0.000000000
                        -----------------------------------------
Magnitude (a.u.)       :      0.704118668
Magnitude (Debye)      :      1.789727422



--------------------
Rotational spectrum 
--------------------
 
Rotational constants in cm-1:            27.601810            14.468766             9.492718 
Rotational constants in MHz :        827481.436250        433762.690722        284584.535725 

Dipole components along the rotational axes: 
x,y,z [a.u.] :    -0.000000    -0.704119    -0.000000 
x,y,z [Debye]:    -0.000000    -1.789727    -0.000000 

 

Dipole moment calculation done in   0.0 sec 

-----------------
QUADRUPOLE MOMENT
-----------------

Method             : SCF
Type of density    : Electron Density
Multiplicity       :   1
Irrep              :   0
Energy             :   -76.3878855059204795 Eh
Basis              : AO

                XX              YY              ZZ              XY              XZ              YZ
  NUC        4.127613791     2.043635996     0.000000000     0.007940349     0.000000000     0.000000000
  EL        -7.503294619    -6.777550879    -5.852638285    -0.002765150     0.000000000     0.000000000
  TOT       -3.375680827    -4.733914883    -5.852638285     0.005175199     0.000000000     0.000000000 (a.u.)
            -4.540406161    -6.367277418    -7.871998653     0.006960820     0.000000000     0.000000000 (Buckingham)

diagonalized tensor:
            -5.852638285    -4.733934602    -3.375661109 (a.u.)
            -7.871998653    -6.367303940    -4.540379639 (Buckingham)
            -4.836313728    -0.322229587     5.158543315 (traceless form in Buckingham)

            -0.000000000     0.003810158     0.999992741
            -0.000000000    -0.999992741     0.003810158
             1.000000000    -0.000000000     0.000000000
        
Isotropic quadrupole :    -4.654077998

Quadrupole moment calculation done in   0.0 sec (  0.0 sec for integrals)

Maximum memory used throughout the entire PROP-calculation: 5.1 MB

--------------------------------
SUGGESTED CITATIONS FOR THIS RUN
--------------------------------

Below you find a list of papers that are relevant to this ORCA run
We neither can nor want to force you to cite these papers, but we appreciate if you do
You receive ORCA, which is the product of decades of hard work by many enthusiastic individuals, for free
The only thing we kindly ask in return is that you cite our papers,
We deeply appreciate it, if you show your appreciation for ORCA by not just citing the generic ORCA reference.

Please note that relegating all ORCA citations to the supporting information does *not* help us.
SI sections are not indexed - citations you put there will not count into any citation statistics
But we need these citations in order to attract the funding resources that allow us to do what we are doing

Therefore, if you are a happy ORCA user, please consider citing a few of the papers listed below in the main body of your paper

In addition to the list printed below, the program has created the file water.bibtex that contains the list in bibtex format
You can import this file easily into all common literature databanks and citation aid programs


List of essential papers. We consider these as the minimum necessary citations

  1. Neese, F.
     Software update: the ORCA program system, version 6.0
     WIRES Comput. Molec. Sci. 2025 15(1), e70019
     doi.org/10.1002/wcms.7019

List of papers to cite with high priority. The work reported in these papers was absolutely
necessary for this run to complete.
Our perspective: the developers of density functionals and basis sets usually get cited in chemistry papers
Good! But without the algorithms to do something with them, the functionals or basis sets would not do anything.
Hence, in our opinion, the algorithm design and method developments papers are equally worthy of getting cited

  1. Neese, F.
     An improvement of the resolution of the identity approximation for the formation of the Coulomb matrix
     J. Comp. Chem. 2003 24(14), 1740-1747
     doi.org/10.1002/jcc.10318
  2. Neese, F.
     The SHARK Integral Generation and Digestion System
     J. Comp. Chem. 2022 44(3), 381
     doi.org/10.1002/jcc.26942

List of suggested additional citations. These are papers that are important in the 'surrounding' of 
of this run, or papers that preceded the highly important papers. If you like your results we are grateful for a citation.

  1. Neese, F.
     The ORCA program system
     WIRES Comput. Molec. Sci. 2012 2(1), 73-78
     doi.org/10.1002/wcms.81
  2. Neese, F.
     Software update: the ORCA program system, version 4.0
     WIRES Comput. Molec. Sci. 2018 8(1), 1-6
     doi.org/10.1002/wcms.1327
  3. Neese, F.; Wennmohs, F.; Becker, U.; Riplinger, C.
     The ORCA quantum chemistry program package
     J. Chem. Phys. 2020 152(22), 224108
     doi.org/10.1063/5.0004608
  4. Neese, F.
     Software update: The ORCA program system—Version 5.0
     WIRES Comput. Molec. Sci. 2022 12(1), e1606
     doi.org/10.1002/wcms.1606

List of optional additional citations

  1. Neese, F.
     Approximate second-order SCF convergence for spin unrestricted wavefunctions
     Chem. Phys. Lett. 2000 325(1-3), 93-98
     doi.org/10.1016/s0009-2614(00)00662-x

Timings for individual modules:

Sum of individual times          ...        5.591 sec (=   0.093 min)
Startup calculation              ...        1.023 sec (=   0.017 min)  18.3 %
SCF iterations                   ...        3.591 sec (=   0.060 min)  64.2 %
Property integrals               ...        0.493 sec (=   0.008 min)   8.8 %
Property calculations            ...        0.484 sec (=   0.008 min)   8.7 %
                             ****ORCA TERMINATED NORMALLY****
TOTAL RUN TIME: 0 days 0 hours 0 minutes 8 seconds 339 msec
